# vtk DataFile Version 3.0
#This file was generated by the deal.II library on 2015/4/21 at 16:36:10
ASCII
DATASET UNSTRUCTURED_GRID

POINTS 3908 double
1 0 0
1 0.25 0
0.8125 0 0
0.807924 0.198549 0
1 0.25 0
1 0.5 0
0.807924 0.198549 0
0.803347 0.397097 0
0.8125 0 0
0.807924 0.198549 0
0.625 0 0
0.615847 0.147097 0
0.807924 0.198549 0
0.803347 0.397097 0
0.615847 0.147097 0
0.606694 0.294194 0
1 0.5 0
1 0.75 0
0.803347 0.397097 0
0.798771 0.595646 0
1 0.75 0
1 1 0
0.798771 0.595646 0
0.794194 0.794194 0
0.803347 0.397097 0
0.798771 0.595646 0
0.606694 0.294194 0
0.597541 0.441291 0
0.798771 0.595646 0
0.794194 0.794194 0
0.597541 0.441291 0
0.588388 0.588388 0
0.625 0 0
0.615847 0.147097 0
0.4375 0 0
0.423771 0.0956456 0
0.615847 0.147097 0
0.606694 0.294194 0
0.423771 0.0956456 0
0.410041 0.191291 0
0.423771 0.0956456 0
0.410041 0.191291 0
0.231694 0.0441942 0
0.213388 0.0883883 0
0.606694 0.294194 0
0.597541 0.441291 0
0.410041 0.191291 0
0.396312 0.286937 0
0.597541 0.441291 0
0.588388 0.588388 0
0.396312 0.286937 0
0.382583 0.382583 0
0.410041 0.191291 0
0.396312 0.286937 0
0.213388 0.0883883 0
0.195083 0.132583 0
1 1 0
0.75 1 0
0.794194 0.794194 0
0.595646 0.798771 0
0.75 1 0
0.5 1 0
0.595646 0.798771 0
0.397097 0.803347 0
0.794194 0.794194 0
0.595646 0.798771 0
0.588388 0.588388 0
0.441291 0.597541 0
0.595646 0.798771 0
0.397097 0.803347 0
0.441291 0.597541 0
0.294194 0.606694 0
0.5 1 0
0.25 1 0
0.397097 0.803347 0
0.198549 0.807924 0
0.25 1 0
6.12323e-17 1 0
0.198549 0.807924 0
4.97513e-17 0.8125 0
0.397097 0.803347 0
0.198549 0.807924 0
0.294194 0.606694 0
0.147097 0.615847 0
0.198549 0.807924 0
4.97513e-17 0.8125 0
0.147097 0.615847 0
3.82702e-17 0.625 0
0.588388 0.588388 0
0.441291 0.597541 0
0.382583 0.382583 0
0.286937 0.396312 0
0.441291 0.597541 0
0.294194 0.606694 0
0.286937 0.396312 0
0.191291 0.410041 0
0.286937 0.396312 0
0.191291 0.410041 0
0.132583 0.195083 0
0.0883883 0.213388 0
0.294194 0.606694 0
0.147097 0.615847 0
0.191291 0.410041 0
0.0956456 0.423771 0
0.147097 0.615847 0
3.82702e-17 0.625 0
0.0956456 0.423771 0
2.67891e-17 0.4375 0
0.191291 0.410041 0
0.0956456 0.423771 0
0.0883883 0.213388 0
0.0441942 0.231694 0
6.12323e-17 1 0
-0.25 1 0
4.97513e-17 0.8125 0
-0.198549 0.807924 0
-0.25 1 0
-0.5 1 0
-0.198549 0.807924 0
-0.397097 0.803347 0
4.97513e-17 0.8125 0
-0.198549 0.807924 0
3.82702e-17 0.625 0
-0.147097 0.615847 0
-0.198549 0.807924 0
-0.397097 0.803347 0
-0.147097 0.615847 0
-0.294194 0.606694 0
-0.5 1 0
-0.75 1 0
-0.397097 0.803347 0
-0.595646 0.798771 0
-0.397097 0.803347 0
-0.595646 0.798771 0
-0.294194 0.606694 0
-0.441291 0.597541 0
-0.595646 0.798771 0
-0.794194 0.794194 0
-0.441291 0.597541 0
-0.588388 0.588388 0
3.82702e-17 0.625 0
-0.147097 0.615847 0
2.67891e-17 0.4375 0
-0.0956456 0.423771 0
-0.147097 0.615847 0
-0.294194 0.606694 0
-0.0956456 0.423771 0
-0.191291 0.410041 0
-0.0956456 0.423771 0
-0.191291 0.410041 0
-0.0441942 0.231694 0
-0.0883883 0.213388 0
-0.294194 0.606694 0
-0.441291 0.597541 0
-0.191291 0.410041 0
-0.286937 0.396312 0
-0.441291 0.597541 0
-0.588388 0.588388 0
-0.286937 0.396312 0
-0.382583 0.382583 0
-0.191291 0.410041 0
-0.286937 0.396312 0
-0.0883883 0.213388 0
-0.132583 0.195083 0
-0.286937 0.396312 0
-0.382583 0.382583 0
-0.132583 0.195083 0
-0.176777 0.176777 0
-0.794194 0.794194 0
-0.798771 0.595646 0
-0.588388 0.588388 0
-0.597541 0.441291 0
-0.588388 0.588388 0
-0.597541 0.441291 0
-0.382583 0.382583 0
-0.396312 0.286937 0
-0.597541 0.441291 0
-0.606694 0.294194 0
-0.396312 0.286937 0
-0.410041 0.191291 0
-0.382583 0.382583 0
-0.396312 0.286937 0
-0.176777 0.176777 0
-0.195083 0.132583 0
-0.396312 0.286937 0
-0.410041 0.191291 0
-0.195083 0.132583 0
-0.213388 0.0883883 0
-0.606694 0.294194 0
-0.615847 0.147097 0
-0.410041 0.191291 0
-0.423771 0.0956456 0
-0.615847 0.147097 0
-0.625 7.65404e-17 0
-0.423771 0.0956456 0
-0.4375 5.35783e-17 0
-0.410041 0.191291 0
-0.423771 0.0956456 0
-0.213388 0.0883883 0
-0.231694 0.0441942 0
-0.8125 9.95026e-17 0
-0.807924 -0.198549 0
-0.625 7.65404e-17 0
-0.615847 -0.147097 0
-0.807924 -0.198549 0
-0.803347 -0.397097 0
-0.615847 -0.147097 0
-0.606694 -0.294194 0
-0.798771 -0.595646 0
-0.794194 -0.794194 0
-0.597541 -0.441291 0
-0.588388 -0.588388 0
-0.625 7.65404e-17 0
-0.615847 -0.147097 0
-0.4375 5.35783e-17 0
-0.423771 -0.0956456 0
-0.615847 -0.147097 0
-0.606694 -0.294194 0
-0.423771 -0.0956456 0
-0.410041 -0.191291 0
-0.423771 -0.0956456 0
-0.410041 -0.191291 0
-0.231694 -0.0441942 0
-0.213388 -0.0883883 0
-0.606694 -0.294194 0
-0.597541 -0.441291 0
-0.410041 -0.191291 0
-0.396312 -0.286937 0
-0.597541 -0.441291 0
-0.588388 -0.588388 0
-0.396312 -0.286937 0
-0.382583 -0.382583 0
-0.410041 -0.191291 0
-0.396312 -0.286937 0
-0.213388 -0.0883883 0
-0.195083 -0.132583 0
-0.794194 -0.794194 0
-0.595646 -0.798771 0
-0.588388 -0.588388 0
-0.441291 -0.597541 0
-0.397097 -0.803347 0
-0.198549 -0.807924 0
-0.294194 -0.606694 0
-0.147097 -0.615847 0
-0.198549 -0.807924 0
-1.49254e-16 -0.8125 0
-0.147097 -0.615847 0
-1.14811e-16 -0.625 0
-0.588388 -0.588388 0
-0.441291 -0.597541 0
-0.382583 -0.382583 0
-0.286937 -0.396312 0
-0.441291 -0.597541 0
-0.294194 -0.606694 0
-0.286937 -0.396312 0
-0.191291 -0.410041 0
-0.286937 -0.396312 0
-0.191291 -0.410041 0
-0.132583 -0.195083 0
-0.0883883 -0.213388 0
-0.294194 -0.606694 0
-0.147097 -0.615847 0
-0.191291 -0.410041 0
-0.0956456 -0.423771 0
-0.147097 -0.615847 0
-1.14811e-16 -0.625 0
-0.0956456 -0.423771 0
-8.03674e-17 -0.4375 0
-0.191291 -0.410041 0
-0.0956456 -0.423771 0
-0.0883883 -0.213388 0
-0.0441942 -0.231694 0
0.198549 -0.807924 0
0.397097 -0.803347 0
0.147097 -0.615847 0
0.294194 -0.606694 0
0.595646 -0.798771 0
0.794194 -0.794194 0
0.441291 -0.597541 0
0.588388 -0.588388 0
-1.14811e-16 -0.625 0
0.147097 -0.615847 0
-8.03674e-17 -0.4375 0
0.0956456 -0.423771 0
0.147097 -0.615847 0
0.294194 -0.606694 0
0.0956456 -0.423771 0
0.191291 -0.410041 0
0.0956456 -0.423771 0
0.191291 -0.410041 0
0.0441942 -0.231694 0
0.0883883 -0.213388 0
0.294194 -0.606694 0
0.441291 -0.597541 0
0.191291 -0.410041 0
0.286937 -0.396312 0
0.441291 -0.597541 0
0.588388 -0.588388 0
0.286937 -0.396312 0
0.382583 -0.382583 0
0.191291 -0.410041 0
0.286937 -0.396312 0
0.0883883 -0.213388 0
0.132583 -0.195083 0
0.286937 -0.396312 0
0.382583 -0.382583 0
0.132583 -0.195083 0
0.176777 -0.176777 0
1 -0.75 0
1 -0.5 0
0.798771 -0.595646 0
0.803347 -0.397097 0
0.794194 -0.794194 0
0.798771 -0.595646 0
0.588388 -0.588388 0
0.597541 -0.441291 0
0.798771 -0.595646 0
0.803347 -0.397097 0
0.597541 -0.441291 0
0.606694 -0.294194 0
1 -0.5 0
1 -0.25 0
0.803347 -0.397097 0
0.807924 -0.198549 0
1 -0.25 0
1 0 0
0.807924 -0.198549 0
0.8125 0 0
0.803347 -0.397097 0
0.807924 -0.198549 0
0.606694 -0.294194 0
0.615847 -0.147097 0
0.807924 -0.198549 0
0.8125 0 0
0.615847 -0.147097 0
0.625 0 0
0.588388 -0.588388 0
0.597541 -0.441291 0
0.382583 -0.382583 0
0.396312 -0.286937 0
0.597541 -0.441291 0
0.606694 -0.294194 0
0.396312 -0.286937 0
0.410041 -0.191291 0
0.382583 -0.382583 0
0.396312 -0.286937 0
0.176777 -0.176777 0
0.195083 -0.132583 0
0.396312 -0.286937 0
0.410041 -0.191291 0
0.195083 -0.132583 0
0.213388 -0.0883883 0
0.606694 -0.294194 0
0.615847 -0.147097 0
0.410041 -0.191291 0
0.423771 -0.0956456 0
0.615847 -0.147097 0
0.625 0 0
0.423771 -0.0956456 0
0.4375 0 0
0.410041 -0.191291 0
0.423771 -0.0956456 0
0.213388 -0.0883883 0
0.231694 -0.0441942 0
2.8125 0 0
2.80792 0.198549 0
2.625 0 0
2.61585 0.147097 0
2.80792 0.198549 0
2.80335 0.397097 0
2.61585 0.147097 0
2.60669 0.294194 0
2.625 0 0
2.61585 0.147097 0
2.4375 0 0
2.42377 0.0956456 0
2.61585 0.147097 0
2.60669 0.294194 0
2.42377 0.0956456 0
2.41004 0.191291 0
2.42377 0.0956456 0
2.41004 0.191291 0
2.23169 0.0441942 0
2.21339 0.0883883 0
2.60669 0.294194 0
2.59754 0.441291 0
2.41004 0.191291 0
2.39631 0.286937 0
2.59754 0.441291 0
2.58839 0.588388 0
2.39631 0.286937 0
2.38258 0.382583 0
2.41004 0.191291 0
2.39631 0.286937 0
2.21339 0.0883883 0
2.19508 0.132583 0
2.75 1 0
2.5 1 0
2.59565 0.798771 0
2.3971 0.803347 0
2.79419 0.794194 0
2.59565 0.798771 0
2.58839 0.588388 0
2.44129 0.597541 0
2.59565 0.798771 0
2.3971 0.803347 0
2.44129 0.597541 0
2.29419 0.606694 0
2.5 1 0
2.25 1 0
2.3971 0.803347 0
2.19855 0.807924 0
2.25 1 0
2 1 0
2.19855 0.807924 0
2 0.8125 0
2.3971 0.803347 0
2.19855 0.807924 0
2.29419 0.606694 0
2.1471 0.615847 0
2.19855 0.807924 0
2 0.8125 0
2.1471 0.615847 0
2 0.625 0
2.58839 0.588388 0
2.44129 0.597541 0
2.38258 0.382583 0
2.28694 0.396312 0
2.44129 0.597541 0
2.29419 0.606694 0
2.28694 0.396312 0
2.19129 0.410041 0
2.28694 0.396312 0
2.19129 0.410041 0
2.13258 0.195083 0
2.08839 0.213388 0
2.29419 0.606694 0
2.1471 0.615847 0
2.19129 0.410041 0
2.09565 0.423771 0
2.1471 0.615847 0
2 0.625 0
2.09565 0.423771 0
2 0.4375 0
2.19129 0.410041 0
2.09565 0.423771 0
2.08839 0.213388 0
2.04419 0.231694 0
2 1 0
1.75 1 0
2 0.8125 0
1.80145 0.807924 0
1.75 1 0
1.5 1 0
1.80145 0.807924 0
1.6029 0.803347 0
2 0.8125 0
1.80145 0.807924 0
2 0.625 0
1.8529 0.615847 0
1.80145 0.807924 0
1.6029 0.803347 0
1.8529 0.615847 0
1.70581 0.606694 0
1.5 1 0
1.25 1 0
1.6029 0.803347 0
1.40435 0.798771 0
1.25 1 0
1 1 0
1.40435 0.798771 0
1.20581 0.794194 0
1.6029 0.803347 0
1.40435 0.798771 0
1.70581 0.606694 0
1.55871 0.597541 0
1.40435 0.798771 0
1.20581 0.794194 0
1.55871 0.597541 0
1.41161 0.588388 0
2 0.625 0
1.8529 0.615847 0
2 0.4375 0
1.90435 0.423771 0
1.8529 0.615847 0
1.70581 0.606694 0
1.90435 0.423771 0
1.80871 0.410041 0
1.90435 0.423771 0
1.80871 0.410041 0
1.95581 0.231694 0
1.91161 0.213388 0
1.70581 0.606694 0
1.55871 0.597541 0
1.80871 0.410041 0
1.71306 0.396312 0
1.55871 0.597541 0
1.41161 0.588388 0
1.71306 0.396312 0
1.61742 0.382583 0
1.80871 0.410041 0
1.71306 0.396312 0
1.91161 0.213388 0
1.86742 0.195083 0
1.71306 0.396312 0
1.61742 0.382583 0
1.86742 0.195083 0
1.82322 0.176777 0
1 0 0
1.1875 7.65404e-18 0
1 0.25 0
1.19208 0.198549 0
1.1875 7.65404e-18 0
1.375 1.53081e-17 0
1.19208 0.198549 0
1.38415 0.147097 0
1 0.25 0
[...]
POINT_DATA 3908
SCALARS solution double 1
LOOKUP_TABLE default
-0.0219142 -0.00521582 0.00191902 0.0152705 -0.00521582 0.00393971 0.0152705 0.0196916 0.00191902 0.0152705 0.0317902 0.04649 0.0152705 0.0196916 0.04649 0.0494466 0.00393971 0.00446379 0.0196916 0.0169687 0.00446379 -9.64801e-08 0.0169687 0.0107808 0.0196916 0.0169687 0.0494466 0.043705 0.0169687 0.0107808 0.043705 0.033498 0.0317902 0.04649 0.0801058 0.103413 0.04649 0.0494466 0.103413 0.106972 0.103413 0.106972 0.9868 0.947548 0.0494466 0.043705 0.106972 0.101734 0.043705 0.033498 0.101734 0.0870847 0.106972 0.101734 0.947548 0.88328 -9.64801e-08 0.00446384 0.0107808 0.0169687 0.00446384 0.00393983 0.0169687 0.0196917 0.0107808 0.0169687 0.033498 0.0437051 0.0169687 0.0196917 0.0437051 0.0494468 0.00393983 -0.00521562 0.0196917 0.0152708 -0.00521562 -0.0219139 0.0152708 0.00191938 0.0196917 0.0152708 0.0494468 0.0464903 0.0152708 0.00191938 0.0464903 0.0317907 0.033498 0.0437051 0.0870847 0.101734 0.0437051 0.0494468 0.101734 0.106972 0.101734 0.106972 0.88328 0.947548 0.0494468 0.0464903 0.106972 0.103413 0.0464903 0.0317907 0.103413 0.0801063 0.106972 0.103413 0.947548 0.9868 -0.0219139 -0.0387732 0.00191938 -0.016055 -0.0387732 -0.0479417 -0.016055 -0.0343229 0.00191938 -0.016055 0.0317907 0.0114041 -0.016055 -0.0343229 0.0114041 -0.0117261 -0.0479417 -0.0460388 -0.0343229 -0.0524233 -0.0343229 -0.0524233 -0.0117261 -0.031096 -0.0524233 -0.0885641 -0.031096 -0.0444194 0.0317907 0.0114041 0.0801063 0.0554445 0.0114041 -0.0117261 0.0554445 0.0206481 0.0554445 0.0206481 0.92388 0.707107 -0.0117261 -0.031096 0.0206481 -0.00818959 -0.031096 -0.0444194 -0.00818959 -0.0304668 0.0206481 -0.00818959 0.707107 0.382683 -0.00818959 -0.0304668 0.382683 1.74393e-16 -0.0885641 -0.0654357 -0.0444194 -0.0411407 -0.0444194 -0.0411407 -0.0304668 -0.0528612 -0.0411407 -0.0483335 -0.0528612 -0.0799319 -0.0304668 -0.0528612 1.74393e-16 -0.382683 -0.0528612 -0.0799319 -0.382683 -0.707107 -0.0483335 -0.0703659 -0.0799319 -0.115132 -0.0703659 -0.0987849 -0.115132 -0.141616 -0.0799319 -0.115132 -0.707107 -0.92388 -0.0769655 -0.125885 -0.0987849 -0.118346 -0.125885 -0.0882824 -0.118346 -0.112273 0.0326379 0.205201 -0.0823477 -0.0410706 -0.0987849 -0.118346 -0.141616 -0.164978 -0.118346 -0.112273 -0.164978 -0.166971 -0.164978 -0.166971 -0.9868 -0.947548 -0.112273 -0.0823477 -0.166971 -0.158584 -0.0823477 -0.0410706 -0.158584 -0.141158 -0.166971 -0.158584 -0.947548 -0.88328 0.205201 0.0326379 -0.0410706 -0.0823478 -0.0882824 -0.125885 -0.112273 -0.118347 -0.125885 -0.0769586 -0.118347 -0.0987858 -0.0410706 -0.0823478 -0.141158 -0.158584 -0.0823478 -0.112273 -0.158584 -0.166971 -0.158584 -0.166971 -0.88328 -0.947548 -0.112273 -0.118347 -0.166971 -0.164978 -0.118347 -0.0987858 -0.164978 -0.141612 -0.166971 -0.164978 -0.947548 -0.9868 -0.0183905 -0.017618 -0.0702295 -0.0483966 -0.0654352 -0.0885641 -0.0411425 -0.0444201 -0.0987858 -0.0702295 -0.141612 -0.115117 -0.0702295 -0.0483966 -0.115117 -0.0799302 -0.115117 -0.0799302 -0.92388 -0.707107 -0.0483966 -0.0411425 -0.0799302 -0.0528642 -0.0411425 -0.0444201 -0.0528642 -0.0304688 -0.0799302 -0.0528642 -0.707107 -0.382683 -0.0528642 -0.0304688 -0.382683 -5.2318e-16 -0.046039 -0.047942 -0.0524237 -0.0343235 -0.0885641 -0.0524237 -0.0444201 -0.031097 -0.0524237 -0.0343235 -0.031097 -0.0117269 -0.047942 -0.0387736 -0.0343235 -0.0160554 -0.0387736 -0.0219142 -0.0160554 0.00191902 -0.0343235 -0.0160554 -0.0117269 0.0114035 -0.0160554 0.00191902 0.0114035 0.0317902 -0.0444201 -0.031097 -0.0304688 -0.00819075 -0.031097 -0.0117269 -0.00819075 0.0206473 -0.0304688 -0.00819075 -5.2318e-16 0.382683 -0.00819075 0.0206473 0.382683 0.707107 -0.0117269 0.0114035 0.0206473 0.0554438 0.0114035 0.0317902 0.0554438 0.0801058 0.0206473 0.0554438 0.707107 0.92388 0.0722573 0.136337 0.0927281 0.121983 0.136337 0.119254 0.121983 0.125682 0.0927281 0.121983 0.134299 0.162933 0.121983 0.125682 0.162933 0.168318 0.162933 0.168318 0.9868 0.947548 0.125682 0.108216 0.168318 0.161765 0.108216 0.081903 0.161765 0.143842 0.168318 0.161765 0.947548 0.88328 0.0460387 0.0479415 0.0521612 0.0630243 0.0110445 0.0521612 0.081903 0.0924543 0.0521612 0.0630243 0.0924543 0.0969268 0.0479415 0.038773 0.0630243 0.0596431 0.038773 0.0219137 0.0596431 0.0456327 0.0630243 0.0596431 0.0969268 0.0919093 0.0596431 0.0456327 0.0919093 0.0750618 0.081903 0.0924543 0.143842 0.154113 0.0924543 0.0969268 0.154113 0.155823 0.154113 0.155823 0.88328 0.947548 0.0969268 0.0919093 0.155823 0.14886 0.0919093 0.0750618 0.14886 0.12247 0.155823 0.14886 0.947548 0.9868 0.0219137 0.00521542 0.0456327 0.0273437 0.00521542 -0.00394002 0.0273437 0.010968 0.0456327 0.0273437 0.0750618 0.0528498 0.0273437 0.010968 0.0528498 0.0287875 -0.00394002 -0.00446403 0.010968 0.00168898 -0.00446403 -9.64801e-08 0.00168898 -1.43728e-07 0.010968 0.00168898 0.0287875 0.0101172 0.00168898 -1.43728e-07 0.0101172 -1.91705e-07 0.0750618 0.0528498 0.12247 0.0944915 0.0528498 0.0287875 0.0944915 0.0568864 0.0944915 0.0568864 0.92388 0.707107 0.0287875 0.0101172 0.0568864 0.0256498 0.0101172 -1.91705e-07 0.0256498 -2.33384e-07 0.0568864 0.0256498 0.707107 0.382683 0.0256498 -2.33384e-07 0.382683 -4.89859e-16 -0.0219142 -0.0456332 -0.00521582 -0.0273442 -0.0456332 -0.0750623 -0.0273442 -0.0528503 -0.00521582 -0.0273442 0.00393971 -0.0109684 -0.0273442 -0.0528503 -0.0109684 -0.028788 -0.0750623 -0.12247 -0.0528503 -0.094492 -0.0528503 -0.094492 -0.028788 -0.0568869 -0.094492 -0.92388 -0.0568869 -0.707107 0.00393971 -0.0109684 0.00446379 -0.00168931 -0.0109684 -0.028788 -0.00168931 -0.0101176 0.00446379 -0.00168931 -9.64801e-08 -1.43728e-07 -0.00168931 -0.0101176 -1.43728e-07 -1.91705e-07 -0.028788 -0.0568869 -0.0101176 -0.0256503 -0.0568869 -0.707107 -0.0256503 -0.382683 -0.0101176 -0.0256503 -1.91705e-07 -2.33384e-07 -0.0256503 -0.382683 -2.33384e-07 -4.89859e-16 -0.0110448 -0.0819033 -0.0521616 -0.0924547 -0.046039 -0.0521616 -0.047942 -0.0630248 -0.0521616 -0.0924547 -0.0630248 -0.0969273 -0.0819033 -0.143842 -0.0924547 -0.154113 -0.0924547 -0.154113 -0.0969273 -0.155823 -0.154113 -0.88328 -0.155823 -0.947548 -0.047942 -0.0630248 -0.0387736 -0.0596436 -0.0630248 -0.0969273 -0.0596436 -0.0919098 -0.0387736 -0.0596436 -0.0219142 -0.0456332 -0.0596436 -0.0919098 -0.0456332 -0.0750623 -0.0969273 -0.155823 -0.0919098 -0.14886 -0.155823 -0.947548 -0.14886 -0.9868 -0.0919098 -0.14886 -0.0750623 -0.12247 -0.119255 -0.136337 -0.125683 -0.121984 -0.136337 -0.0722577 -0.121984 -0.0927286 -0.0819033 -0.108216 -0.143842 -0.161765 -0.108216 -0.125683 -0.161765 -0.168319 -0.161765 -0.168319 -0.88328 -0.947548 -0.125683 -0.121984 -0.168319 -0.162934 -0.121984 -0.0927286 -0.162934 -0.134299 -0.168319 -0.162934 -0.947548 -0.9868 0.000669658 0.0148817 -0.053988 -0.0224293 -0.0927286 -0.053988 -0.134299 -0.101392 -0.053988 -0.0224293 -0.101392 -0.0595275 -0.101392 -0.0595275 -0.92388 -0.707107 -0.0224293 -0.00563711 -0.0595275 -0.0259468 -0.00563711 -2.2395e-07 -0.0259468 -2.34862e-07 -0.0595275 -0.0259468 -0.707107 -0.382683 -0.0259468 -2.34862e-07 -0.382683 -4.89859e-16 -0.0148821 -0.00067007 0.0224288 0.0539875 -2.2395e-07 0.00563666 -2.34862e-07 0.0259463 0.00563666 0.0224288 0.0259463 0.0595271 -2.34862e-07 0.0259463 -4.89859e-16 0.382683 0.0259463 0.0595271 0.382683 0.707107 0.0224288 0.0539875 0.0595271 0.101392 0.0539875 0.0927281 0.101392 0.134299 0.0595271 0.101392 0.707107 0.92388 0.0219139 0.0387732 0.0456329 0.0596434 0.0387732 0.0479417 0.0596434 0.0630246 0.0456329 0.0596434 0.0750621 0.0919096 0.0596434 0.0630246 0.0919096 0.0969271 0.0479417 0.0460389 0.0630246 0.0521614 0.0630246 0.0521614 0.0969271 0.0924546 0.0521614 0.0110447 0.0924546 0.0819033 0.0750621 0.0919096 0.12247 0.14886 0.0919096 0.0969271 0.14886 0.155823 0.14886 0.155823 0.9868 0.947548 0.0969271 0.0924546 0.155823 0.154113 0.0924546 0.0819033 0.154113 0.143842 0.155823 0.154113 0.947548 0.88328 0.119255 0.136337 0.125683 0.121984 0.136337 0.0722576 0.121984 0.0927285 0.0819033 0.108216 0.143842 0.161765 0.108216 0.125683 0.161765 0.168319 0.161765 0.168319 0.88328 0.947548 0.125683 0.121984 0.168319 0.162933 0.121984 0.0927285 0.162933 0.134299 0.168319 0.162933 0.947548 0.9868 -0.000669743 -0.0148818 0.0539879 0.0224292 0.0927285 0.0539879 0.134299 0.101392 0.0539879 0.0224292 0.101392 0.0595274 0.101392 0.0595274 0.92388 0.707107 0.0224292 0.00563699 0.0595274 0.0259467 0.00563699 1.03945e-07 0.0259467 8.63876e-08 0.0595274 0.0259467 0.707107 0.382683 0.0259467 8.63876e-08 0.382683 -4.89859e-16 0.014882 0.000669924 -0.022429 -0.0539877 1.03945e-07 -0.0056368 8.63876e-08 -0.0259465 -0.0056368 -0.022429 -0.0259465 -0.0595272 8.63876e-08 -0.0259465 -4.89859e-16 -0.382683 -0.0259465 -0.0595272 -0.382683 -0.707107 -0.022429 -0.0539877 -0.0595272 -0.101392 -0.0539877 -0.0927283 -0.101392 -0.134299 -0.0595272 -0.101392 -0.707107 -0.92388 -0.0722574 -0.136337 -0.0927283 -0.121983 -0.136337 -0.119255 -0.121983 -0.125682 -0.0927283 -0.121983 -0.134299 -0.162933 -0.121983 -0.125682 -0.162933 -0.168319 -0.162933 -0.168319 -0.9868 -0.947548 -0.125682 -0.108216 -0.168319 -0.161765 -0.108216 -0.0819032 -0.161765 -0.143842 -0.168319 -0.161765 -0.947548 -0.88328 -0.0219139 -0.045633 -0.0387732 -0.0596434 -0.045633 -0.0750621 -0.0596434 -0.0919096 -0.0387732 -0.0596434 -0.0479417 -0.0630246 -0.0596434 -0.0919096 -0.0630246 -0.0969271 -0.0750621 -0.12247 -0.0919096 -0.14886 -0.0919096 -0.14886 -0.0969271 -0.155823 -0.14886 -0.9868 -0.155823 -0.947548 -0.0479417 -0.0630246 -0.0460388 -0.0521614 -0.0630246 -0.0969271 -0.0521614 -0.0924545 -0.0521614 -0.0924545 -0.0110447 -0.0819032 -0.0969271 -0.155823 -0.0924545 -0.154113 -0.155823 -0.947548 -0.154113 -0.88328 -0.0924545 -0.154113 -0.0819032 -0.143842 -9.64801e-08 -6.3718e-08 0.00446384 -0.00168919 -6.3718e-08 -5.24739e-08 -0.00168919 -0.0101175 0.00446384 -0.00168919 0.00393983 -0.0109682 -0.00168919 -0.0101175 -0.0109682 -0.0287878 -5.24739e-08 -5.2085e-08 -0.0101175 -0.0256501 -5.2085e-08 -2.26622e-15 -0.0256501 -0.382683 -0.0101175 -0.0256501 -0.0287878 -0.0568868 -0.0256501 -0.382683 -0.0568868 -0.707107 0.00393983 -0.0109682 -0.00521562 -0.027344 -0.0109682 -0.0287878 -0.027344 -0.0528501 -0.00521562 -0.027344 -0.0219139 -0.045633 -0.027344 -0.0528501 -0.045633 -0.0750621 -0.0287878 -0.0568868 -0.0528501 -0.0944919 -0.0568868 -0.707107 -0.0944919 -0.92388 -0.0528501 -0.0944919 -0.0750621 -0.12247 -9.64801e-08 -0.00446399 -6.3718e-08 0.00168909 -0.00446399 -0.00393993 0.00168909 0.0109681 -6.3718e-08 0.00168909 -5.24739e-08 0.0101174 0.00168909 0.0109681 0.0101174 0.0287877 -0.00393993 0.00521556 0.0109681 0.0273439 0.00521556 0.0219139 0.0273439 0.0456329 0.0109681 0.0273439 0.0287877 0.05285 0.0273439 0.0456329 0.05285 0.0750621 -5.24739e-08 0.0101174 -5.2085e-08 0.02565 0.0101174 0.0287877 0.02565 0.0568867 -5.2085e-08 0.02565 -2.26622e-15 0.382683 0.02565 0.0568867 0.382683 0.707107 0.0287877 0.05285 0.0568867 0.0944918 0.05285 0.0750621 0.0944918 0.12247 0.0568867 0.0944918 0.707107 0.92388 0.0769653 0.125885 0.0987847 0.118346 0.125885 0.088282 0.118346 0.112272 -0.0326383 -0.205202 0.0823473 0.0410702 0.0987847 0.118346 0.141615 0.164978 0.118346 0.112272 0.164978 0.166971 0.164978 0.166971 0.9868 0.947548 0.112272 0.0823473 0.166971 0.158583 0.0823473 0.0410702 0.158583 0.141157 0.166971 0.158583 0.947548 0.88328 -0.205202 -0.0326383 0.0410702 0.0823473 0.088282 0.125885 0.112272 0.118346 0.125885 0.0769653 0.118346 0.0987847 0.0410702 0.0823473 0.141157 0.158583 0.0823473 0.112272 0.158583 0.166971 0.158583 0.166971 0.88328 0.947548 0.112272 0.118346 0.166971 0.164978 0.118346 0.0987847 0.164978 0.141615 0.166971 0.164978 0.947548 0.9868 0.0654357 0.0885641 0.0411406 0.0444193 0.0987847 0.0703657 0.141615 0.115131 0.0703657 0.0483334 0.115131 0.0799318 0.115131 0.0799318 0.92388 0.707107 0.0483334 0.0411406 0.0799318 0.0528611 0.0411406 0.0444193 0.0528611 0.0304667 0.0799318 0.0528611 0.707107 0.382683 0.0528611 0.0304667 0.382683 -9.79717e-16 0.0219139 -0.00191941 0.0387732 0.0160549 -0.00191941 -0.0317907 0.0160549 -0.0114042 0.0387732 0.0160549 0.0479417 0.0343229 0.0160549 -0.0114042 0.0343229 0.0117261 -0.0317907 -0.0801063 -0.0114042 -0.0554445 -0.0114042 -0.0554445 0.0117261 -0.0206481 -0.0554445 -0.92388 -0.0206481 -0.707107 0.0479417 0.0343229 0.0460389 0.0524233 0.0343229 0.0117261 0.0524233 0.031096 0.0524233 0.031096 0.0885641 0.0444193 0.0117261 -0.0206481 0.031096 0.00818952 -0.0206481 -0.707107 0.00818952 -0.382683 0.031096 0.00818952 0.0444193 0.0304667 0.00818952 -0.382683 0.0304667 -9.79717e-16 -9.64801e-08 -0.010781 -0.00446399 -0.0169689 -0.010781 -0.0334982 -0.0169689 -0.0437052 -0.00446399 -0.0169689 -0.00393993 -0.0196918 -0.0169689 -0.0437052 -0.0196918 -0.0494468 -0.0334982 -0.0870848 -0.0437052 -0.101734 -0.0437052 -0.101734 -0.0494468 -0.106973 -0.101734 -0.88328 -0.106973 -0.947548 -0.00393993 -0.0196918 0.00521556 -0.0152708 -0.0196918 -0.0494468 -0.0152708 -0.0464904 0.00521556 -0.0152708 0.0219139 -0.00191941 -0.0152708 -0.0464904 -0.00191941 -0.0317907 -0.0494468 -0.106973 -0.0464904 -0.103413 -0.106973 -0.947548 -0.103413 -0.9868 -0.0464904 -0.103413 -0.0317907 -0.0801063 0.0219137 -0.00191956 0.00521542 -0.0152709 -0.00191956 -0.0317908 -0.0152709 -0.0464905 0.00521542 -0.0152709 -0.00394002 -0.0196919 -0.0152709 -0.0464905 -0.0196919 -0.0494469 -0.0317908 -0.0801064 -0.0464905 -0.103413 -0.0464905 -0.103413 -0.0494469 -0.106973 -0.103413 -0.9868 -0.106973 -0.947548 -0.00394002 -0.0196919 -0.00446403 -0.0169689 -0.0196919 -0.0494469 -0.0169689 -0.0437052 -0.00446403 -0.0169689 -9.64801e-08 -0.010781 -0.0169689 -0.0437052 -0.010781 -0.0334982 -0.0494469 -0.106973 -0.0437052 -0.101734 -0.106973 -0.947548 -0.101734 -0.88328 -0.0437052 -0.101734 -0.0334982 -0.0870848 0.0885639 0.0444192 0.0524231 0.0310959 0.0460387 0.0524231 0.0479415 0.0343228 0.0524231 0.0310959 0.0343228 0.0117259 0.0444192 0.0304666 0.0310959 0.00818942 0.0304666 -9.79717e-16 0.00818942 -0.382683 0.0310959 0.00818942 0.0117259 -0.0206483 0.00818942 -0.382683 -0.0206483 -0.707107 0.0479415 0.0343228 0.038773 0.0160548 0.0343228 0.0117259 0.0160548 -0.0114043 0.038773 0.0160548 0.0219137 -0.00191956 0.0160548 -0.0114043 -0.00191956 -0.0317908 0.0117259 -0.0206483 -0.0114043 -0.0554446 -0.0206483 -0.707107 -0.0554446 -0.92388 -0.0114043 -0.0554446 -0.0317908 -0.0801064 0.0885639 0.0654356 0.0444192 0.0411405 0.0444192 0.0411405 0.0304666 0.052861 0.0411405 0.0483333 0.052861 0.0799317 0.0304666 0.052861 -9.79717e-16 0.382683 0.052861 0.0799317 0.382683 0.707107 0.0483333 0.0703657 0.0799317 0.115131 0.0703657 0.0987847 0.115131 0.141615 0.0799317 0.115131 0.707107 0.92388 0.0801058 0.091243 0.220631 0.245876 0.091243 0.103413 0.245876 0.273341 0.220631 0.245876 1 0.996695 0.245876 0.273341 0.996695 0.9868 0.101734 0.0932529 0.251096 0.220432 0.0932529 0.0870847 0.220432 0.195517 0.251096 0.220432 0.88328 0.842271 0.220432 0.195517 0.842271 0.795693 0.0870847 0.0932529 0.195517 0.220432 0.0932529 0.101734 0.220432 0.251096 0.195517 0.220432 0.795693 0.842271 0.220432 0.251096 0.842271 0.88328 0.103413 0.0912434 0.273342 0.245876 0.0912434 0.0801063 0.245876 0.220632 0.273342 0.245876 0.9868 0.996695 0.245876 0.220632 0.996695 1 -0.0460388 -0.0379766 -0.0574043 -0.0718523 -0.0379766 0 -0.0718523 -0.102841 -0.0574043 -0.0718523 -0.0524233 -0.0653981 -0.0718523 -0.102841 -0.0653981 -0.0885641 0.0801063 0.0666989 0.220632 0.216147 0.0666989 0.0554445 0.216147 0.205389 0.220632 0.216147 1 0.980785 0.216147 0.205389 0.980785 0.92388 0 -0.707107 -0.102841 -0.175549 -0.707107 -1 -0.175549 -0.181928 -0.102841 -0.175549 -0.0885641 -0.0854758 -0.175549 -0.181928 -0.0854758 -0.0654357 -1 -0.707107 -0.181928 -0.0988402 -0.707107 -1.01064e-15 -0.0988402 -0.00355295 -0.181928 -0.0988402 -0.0654357 -0.0400943 -0.0988402 -0.00355295 -0.0400943 -0.0177132 -0.0654357 -0.0400943 -0.0453659 -0.0367399 -0.0400943 -0.0177132 -0.0367399 -0.0330104 -0.0453659 -0.0367399 -0.0411407 -0.042907 -0.0367399 -0.0330104 -0.042907 -0.0483335 -1.01064e-15 0.707107 -0.00355295 0.0799203 0.707107 1 0.0799203 0.110691 -0.00355295 0.0799203 -0.0177132 -0.00914823 0.0799203 0.110691 -0.00914823 -0.0182503 1 0.707107 0.110691 0.0466714 0.707107 1.13311e-15 0.0466714 -0.065476 0.110691 0.0466714 -0.0182503 -0.0424915 0.0466714 -0.065476 -0.0424915 -0.0769655 -0.0177132 -0.00914823 -0.0330104 -0.0368108 -0.00914823 -0.0182503 -0.0368108 -0.0483031 -0.0330104 -0.0368108 -0.0483335 -0.0575492 -0.0368108 -0.0483031 -0.0575492 -0.0703659 -0.0182503 -0.0424915 -0.0483031 -0.0660186 -0.0424915 -0.0769655 -0.0660186 -0.086432 -0.0483031 -0.0660186 -0.0703659 -0.0844411 -0.0660186 -0.086432 -0.0844411 -0.0987849 -0.115132 -0.127398 -0.252609 -0.266476 -0.127398 -0.141616 -0.266476 -0.272681 -0.252609 -0.266476 -0.92388 -0.980785 -0.266476 -0.272681 -0.980785 -1 1.13311e-15 -0.707107 -0.065476 -0.170214 -0.707107 -1 -0.170214 -0.226842 -0.065476 -0.170214 -0.0769655 -0.110605 -0.170214 -0.226842 -0.110605 -0.125885 -1 -0.707107 -0.226842 -0.184001 -0.707107 -3.67394e-16 -0.184001 -0.0757794 -0.226842 -0.184001 -0.125885 -0.119727 -0.184001 -0.0757794 -0.119727 -0.0882824 -3.67394e-16 0.707107 -0.0757794 0.0705645 0.707107 1 0.0705645 0.237885 -0.0757794 0.0705645 -0.0882824 -0.0366977 0.0705645 0.237885 -0.0366977 0.0326379 1 0.707107 0.237885 0.340473 0.707107 4.89859e-16 0.340473 0.373128 0.237885 0.340473 0.0326379 0.114097 0.340473 0.373128 0.114097 0.205201 -0.0882824 -0.0366977 -0.0983433 -0.0729394 -0.0366977 0.0326379 -0.0729394 -0.0385572 -0.0983433 -0.0729394 -0.112273 -0.0997663 -0.0729394 -0.0385572 -0.0997663 -0.0823477 -0.141616 -0.153154 -0.272681 -0.296961 -0.153154 -0.164978 -0.296961 -0.3225 -0.272681 -0.296961 -1 -0.996695 -0.296961 -0.3225 -0.996695 -0.9868 -0.158584 -0.148824 -0.30016 -0.272547 -0.148824 -0.141158 -0.272547 -0.248887 -0.30016 -0.272547 -0.88328 -0.842271 -0.272547 -0.248887 -0.842271 -0.795693 4.89859e-16 0.707107 0.373128 0.340473 0.707107 1 0.340473 0.237885 0.373128 0.340473 0.205201 0.114096 0.340473 0.237885 0.114096 0.0326379 1 0.707107 0.237885 0.0705645 0.707107 -3.67394e-16 0.0705645 -0.0757794 0.237885 0.0705645 0.0326379 -0.0366977 0.0705645 -0.0757794 -0.0366977 -0.0882824 0.0326379 -0.0366977 -0.0385573 -0.0729395 -0.0366977 -0.0882824 -0.0729395 -0.0983436 -0.0385573 -0.0729395 -0.0823478 -0.0997665 -0.0729395 -0.0983436 -0.0997665 -0.112273 -3.67394e-16 -0.707107 -0.0757794 -0.184001 -0.707107 -1 -0.184001 -0.226842 -0.0757794 -0.184001 -0.0882824 -0.119727 -0.184001 -0.226842 -0.119727 -0.125885 -1 -0.707107 -0.226842 -0.170213 -0.707107 -1.53143e-15 -0.170213 -0.0654691 -0.226842 -0.170213 -0.125885 -0.110605 -0.170213 -0.0654691 -0.110605 -0.0769586 -0.141158 -0.148824 -0.248887 -0.272547 -0.148824 -0.158584 -0.272547 -0.30016 -0.248887 -0.272547 -0.795693 -0.842271 -0.272547 -0.30016 -0.842271 -0.88328 -0.164978 -0.153154 -0.3225 -0.296961 -0.153154 -0.141612 -0.296961 -0.27268 -0.3225 -0.296961 -0.9868 -0.996695 -0.296961 -0.27268 -0.996695 -1 -1.53143e-15 0.707107 -0.0654691 0.0466645 0.707107 1 0.0466645 0.110682 -0.0654691 0.0466645 -0.0769586 -0.0424743 0.0466645 0.110682 -0.0424743 -0.0183905 1 0.707107 0.110682 0.0799579 0.707107 7.65714e-16 0.0799579 -0.0035429 0.110682 0.0799579 -0.0183905 -0.00892784 0.0799579 -0.0035429 -0.00892784 -0.017618 -0.0769586 -0.0424743 -0.0864389 -0.0660394 -0.0424743 -0.0183905 -0.0660394 -0.0483654 -0.0864389 -0.0660394 -0.0987858 -0.0844647 -0.0660394 -0.0483654 -0.0844647 -0.0702295 7.65714e-16 -0.707107 -0.0035429 -0.0988387 -0.707107 -1 -0.0988387 -0.181928 -0.0035429 -0.0988387 -0.017618 -0.0400892 -0.0988387 -0.181928 -0.0400892 -0.0654352 -1 -0.707107 -0.181928 -0.175549 -0.707107 0 -0.175549 -0.102842 -0.181928 -0.175549 -0.0654352 -0.0854756 -0.175549 -0.102842 -0.0854756 -0.0885641 -0.017618 -0.0400892 -0.0329523 -0.0367399 -0.0400892 -0.0654352 -0.0367399 -0.0453661 -0.0329523 -0.0367399 -0.0483966 -0.042906 -0.0367399 -0.0453661 -0.042906 -0.041142