# vtk DataFile Version 3.0
#This file was generated by the deal.II library on 2015/4/21 at 16:37: 0
ASCII
DATASET UNSTRUCTURED_GRID

POINTS 28940 double
1 0 0
1 0.25 0
0.8125 0 0
0.807924 0.198549 0
1 0.25 0
1 0.5 0
0.807924 0.198549 0
0.803347 0.397097 0
0.8125 0 0
0.807924 0.198549 0
0.625 0 0
0.615847 0.147097 0
0.807924 0.198549 0
0.803347 0.397097 0
0.615847 0.147097 0
0.606694 0.294194 0
1 0.5 0
1 0.75 0
0.803347 0.397097 0
0.798771 0.595646 0
1 0.75 0
1 1 0
0.798771 0.595646 0
0.794194 0.794194 0
0.803347 0.397097 0
0.798771 0.595646 0
0.606694 0.294194 0
0.597541 0.441291 0
0.798771 0.595646 0
0.794194 0.794194 0
0.597541 0.441291 0
0.588388 0.588388 0
1 1 0
0.75 1 0
0.794194 0.794194 0
0.595646 0.798771 0
0.75 1 0
0.5 1 0
0.595646 0.798771 0
0.397097 0.803347 0
0.794194 0.794194 0
0.595646 0.798771 0
0.588388 0.588388 0
0.441291 0.597541 0
0.595646 0.798771 0
0.397097 0.803347 0
0.441291 0.597541 0
0.294194 0.606694 0
0.5 1 0
0.25 1 0
0.397097 0.803347 0
0.198549 0.807924 0
0.25 1 0
6.12323e-17 1 0
0.198549 0.807924 0
4.97513e-17 0.8125 0
0.397097 0.803347 0
0.198549 0.807924 0
0.294194 0.606694 0
0.147097 0.615847 0
0.198549 0.807924 0
4.97513e-17 0.8125 0
0.147097 0.615847 0
3.82702e-17 0.625 0
6.12323e-17 1 0
-0.25 1 0
4.97513e-17 0.8125 0
-0.198549 0.807924 0
-0.25 1 0
-0.5 1 0
-0.198549 0.807924 0
-0.397097 0.803347 0
4.97513e-17 0.8125 0
-0.198549 0.807924 0
3.82702e-17 0.625 0
-0.147097 0.615847 0
-0.198549 0.807924 0
-0.397097 0.803347 0
-0.147097 0.615847 0
-0.294194 0.606694 0
-0.5 1 0
-0.75 1 0
-0.397097 0.803347 0
-0.595646 0.798771 0
-0.397097 0.803347 0
-0.595646 0.798771 0
-0.294194 0.606694 0
-0.441291 0.597541 0
1 -0.75 0
1 -0.5 0
0.798771 -0.595646 0
0.803347 -0.397097 0
0.798771 -0.595646 0
0.803347 -0.397097 0
0.597541 -0.441291 0
0.606694 -0.294194 0
1 -0.5 0
1 -0.25 0
0.803347 -0.397097 0
0.807924 -0.198549 0
1 -0.25 0
1 0 0
0.807924 -0.198549 0
0.8125 0 0
0.803347 -0.397097 0
0.807924 -0.198549 0
0.606694 -0.294194 0
0.615847 -0.147097 0
0.807924 -0.198549 0
0.8125 0 0
0.615847 -0.147097 0
0.625 0 0
2.75 1 0
2.5 1 0
2.59565 0.798771 0
2.3971 0.803347 0
2.59565 0.798771 0
2.3971 0.803347 0
2.44129 0.597541 0
2.29419 0.606694 0
2.5 1 0
2.25 1 0
2.3971 0.803347 0
2.19855 0.807924 0
2.25 1 0
2 1 0
2.19855 0.807924 0
2 0.8125 0
2.3971 0.803347 0
2.19855 0.807924 0
2.29419 0.606694 0
2.1471 0.615847 0
2.19855 0.807924 0
2 0.8125 0
2.1471 0.615847 0
2 0.625 0
2 1 0
1.75 1 0
2 0.8125 0
1.80145 0.807924 0
1.75 1 0
1.5 1 0
1.80145 0.807924 0
1.6029 0.803347 0
2 0.8125 0
1.80145 0.807924 0
2 0.625 0
1.8529 0.615847 0
1.80145 0.807924 0
1.6029 0.803347 0
1.8529 0.615847 0
1.70581 0.606694 0
1.5 1 0
1.25 1 0
1.6029 0.803347 0
1.40435 0.798771 0
1.25 1 0
1 1 0
1.40435 0.798771 0
1.20581 0.794194 0
1.6029 0.803347 0
1.40435 0.798771 0
1.70581 0.606694 0
1.55871 0.597541 0
1.40435 0.798771 0
1.20581 0.794194 0
1.55871 0.597541 0
1.41161 0.588388 0
1 0 0
1.1875 7.65404e-18 0
1 0.25 0
1.19208 0.198549 0
1.1875 7.65404e-18 0
1.375 1.53081e-17 0
1.19208 0.198549 0
1.38415 0.147097 0
1 0.25 0
1.19208 0.198549 0
1 0.5 0
1.19665 0.397097 0
1.19208 0.198549 0
1.38415 0.147097 0
1.19665 0.397097 0
1.39331 0.294194 0
1 0.5 0
1.19665 0.397097 0
1 0.75 0
1.20123 0.595646 0
1.19665 0.397097 0
1.39331 0.294194 0
1.20123 0.595646 0
1.40246 0.441291 0
1 0.75 0
1.20123 0.595646 0
1 1 0
1.20581 0.794194 0
1.20123 0.595646 0
1.40246 0.441291 0
1.20581 0.794194 0
1.41161 0.588388 0
1 -0.75 0
1.20123 -0.595646 0
1 -0.5 0
1.19665 -0.397097 0
1.20123 -0.595646 0
1.40246 -0.441291 0
1.19665 -0.397097 0
1.39331 -0.294194 0
1 -0.5 0
1.19665 -0.397097 0
1 -0.25 0
1.19208 -0.198549 0
1.19665 -0.397097 0
1.39331 -0.294194 0
1.19208 -0.198549 0
1.38415 -0.147097 0
1 -0.25 0
1.19208 -0.198549 0
1 0 0
1.1875 7.65404e-18 0
1.19208 -0.198549 0
1.38415 -0.147097 0
1.1875 7.65404e-18 0
1.375 1.53081e-17 0
1 2 0
1 2.25 0
0.8125 2 0
0.807924 2.19855 0
1 2.25 0
1 2.5 0
0.807924 2.19855 0
0.803347 2.3971 0
0.8125 2 0
0.807924 2.19855 0
0.625 2 0
0.615847 2.1471 0
0.807924 2.19855 0
0.803347 2.3971 0
0.615847 2.1471 0
0.606694 2.29419 0
1 2.5 0
1 2.75 0
0.803347 2.3971 0
0.798771 2.59565 0
0.803347 2.3971 0
0.798771 2.59565 0
0.606694 2.29419 0
0.597541 2.44129 0
6.12323e-17 1 0
3.44432e-17 1.1875 0
-0.25 1 0
-0.198549 1.19208 0
3.44432e-17 1.1875 0
7.65404e-18 1.375 0
-0.198549 1.19208 0
-0.147097 1.38415 0
-0.25 1 0
-0.198549 1.19208 0
-0.5 1 0
-0.397097 1.19665 0
-0.198549 1.19208 0
-0.147097 1.38415 0
-0.397097 1.19665 0
-0.294194 1.39331 0
-0.5 1 0
-0.397097 1.19665 0
-0.75 1 0
-0.595646 1.20123 0
-0.397097 1.19665 0
-0.294194 1.39331 0
-0.595646 1.20123 0
-0.441291 1.40246 0
1 1 0
0.794194 1.20581 0
0.75 1 0
0.595646 1.20123 0
0.794194 1.20581 0
0.588388 1.41161 0
0.595646 1.20123 0
0.441291 1.40246 0
0.75 1 0
0.595646 1.20123 0
0.5 1 0
0.397097 1.19665 0
0.595646 1.20123 0
0.441291 1.40246 0
0.397097 1.19665 0
0.294194 1.39331 0
0.5 1 0
0.397097 1.19665 0
0.25 1 0
0.198549 1.19208 0
0.397097 1.19665 0
0.294194 1.39331 0
0.198549 1.19208 0
0.147097 1.38415 0
0.25 1 0
0.198549 1.19208 0
6.12323e-17 1 0
3.44432e-17 1.1875 0
0.198549 1.19208 0
0.147097 1.38415 0
3.44432e-17 1.1875 0
7.65404e-18 1.375 0
1 1 0
1 1.25 0
0.794194 1.20581 0
0.798771 1.40435 0
1 1.25 0
1 1.5 0
0.798771 1.40435 0
0.803347 1.6029 0
0.794194 1.20581 0
0.798771 1.40435 0
0.588388 1.41161 0
0.597541 1.55871 0
0.798771 1.40435 0
0.803347 1.6029 0
0.597541 1.55871 0
0.606694 1.70581 0
1 1.5 0
1 1.75 0
0.803347 1.6029 0
0.807924 1.80145 0
1 1.75 0
1 2 0
0.807924 1.80145 0
0.8125 2 0
0.803347 1.6029 0
0.807924 1.80145 0
0.606694 1.70581 0
0.615847 1.8529 0
0.807924 1.80145 0
0.8125 2 0
0.615847 1.8529 0
0.625 2 0
1 2 0
1.1875 2 0
1 2.25 0
1.19208 2.19855 0
1.1875 2 0
1.375 2 0
1.19208 2.19855 0
1.38415 2.1471 0
1 2.25 0
1.19208 2.19855 0
1 2.5 0
1.19665 2.3971 0
1.19208 2.19855 0
1.38415 2.1471 0
1.19665 2.3971 0
1.39331 2.29419 0
1 2.5 0
1.19665 2.3971 0
1 2.75 0
1.20123 2.59565 0
1.19665 2.3971 0
1.39331 2.29419 0
1.20123 2.59565 0
1.40246 2.44129 0
1 1 0
1.20581 1.20581 0
1 1.25 0
1.20123 1.40435 0
1.20581 1.20581 0
1.41161 1.41161 0
1.20123 1.40435 0
1.40246 1.55871 0
1 1.25 0
1.20123 1.40435 0
1 1.5 0
1.19665 1.6029 0
1.20123 1.40435 0
1.40246 1.55871 0
1.19665 1.6029 0
1.39331 1.70581 0
1 1.5 0
1.19665 1.6029 0
1 1.75 0
1.19208 1.80145 0
1.19665 1.6029 0
1.39331 1.70581 0
1.19208 1.80145 0
1.38415 1.8529 0
1 1.75 0
1.19208 1.80145 0
1 2 0
1.1875 2 0
1.19208 1.80145 0
1.38415 1.8529 0
1.1875 2 0
1.375 2 0
2 1 0
2 1.1875 0
1.75 1 0
1.80145 1.19208 0
2 1.1875 0
2 1.375 0
1.80145 1.19208 0
1.8529 1.38415 0
1.75 1 0
1.80145 1.19208 0
1.5 1 0
1.6029 1.19665 0
1.80145 1.19208 0
1.8529 1.38415 0
1.6029 1.19665 0
1.70581 1.39331 0
1.5 1 0
1.6029 1.19665 0
1.25 1 0
1.40435 1.20123 0
1.6029 1.19665 0
1.70581 1.39331 0
1.40435 1.20123 0
1.55871 1.40246 0
1.25 1 0
1.40435 1.20123 0
1 1 0
1.20581 1.20581 0
1.40435 1.20123 0
1.55871 1.40246 0
1.20581 1.20581 0
1.41161 1.41161 0
2.75 1 0
2.59565 1.20123 0
2.5 1 0
2.3971 1.19665 0
2.59565 1.20123 0
2.44129 1.40246 0
2.3971 1.19665 0
2.29419 1.39331 0
2.5 1 0
2.3971 1.19665 0
2.25 1 0
2.19855 1.19208 0
2.3971 1.19665 0
2.29419 1.39331 0
2.19855 1.19208 0
2.1471 1.38415 0
2.25 1 0
2.19855 1.19208 0
2 1 0
2 1.1875 0
2.19855 1.19208 0
2.1471 1.38415 0
2 1.1875 0
2 1.375 0
-0.75 1 0
-0.875 1 0
-0.672823 0.899385 0
-0.78496 0.898241 0
-0.672823 0.899385 0
-0.78496 0.898241 0
-0.595646 0.798771 0
-0.69492 0.796482 0
-0.798771 0.595646 0
-0.801059 0.496371 0
-0.698156 0.518468 0
-0.701588 0.432057 0
-0.801059 0.496371 0
-0.803347 0.397097 0
-0.701588 0.432057 0
-0.705021 0.345646 0
-0.698156 0.518468 0
-0.701588 0.432057 0
-0.597541 0.441291 0
-0.602118 0.367743 0
-0.701588 0.432057 0
-0.705021 0.345646 0
-0.602118 0.367743 0
-0.606694 0.294194 0
-0.803347 0.397097 0
-0.805635 0.297823 0
-0.705021 0.345646 0
-0.708453 0.259234 0
-0.705021 0.345646 0
-0.708453 0.259234 0
-0.606694 0.294194 0
-0.611271 0.220646 0
-0.708453 0.259234 0
-0.711885 0.172823 0
-0.611271 0.220646 0
-0.615847 0.147097 0
-0.807924 0.198549 0
-0.810212 0.0992743 0
-0.711885 0.172823 0
-0.715318 0.0864114 0
-0.810212 0.0992743 0
-0.8125 9.95026e-17 0
-0.715318 0.0864114 0
-0.71875 8.80215e-17 0
-0.711885 0.172823 0
-0.715318 0.0864114 0
-0.615847 0.147097 0
-0.620424 0.0735485 0
-0.715318 0.0864114 0
-0.71875 8.80215e-17 0
-0.620424 0.0735485 0
-0.625 7.65404e-17 0
-0.803347 -0.397097 0
-0.801059 -0.496371 0
-0.705021 -0.345646 0
-0.701588 -0.432057 0
-0.705021 -0.345646 0
-0.701588 -0.432057 0
-0.606694 -0.294194 0
-0.602118 -0.367743 0
-0.701588 -0.432057 0
-0.698156 -0.518468 0
-0.602118 -0.367743 0
-0.597541 -0.441291 0
-0.496371 -0.801059 0
-0.397097 -0.803347 0
-0.432057 -0.701588 0
-0.345646 -0.705021 0
-0.518468 -0.698156 0
-0.432057 -0.701588 0
-0.441291 -0.597541 0
-0.367743 -0.602118 0
-0.432057 -0.701588 0
-0.345646 -0.705021 0
-0.367743 -0.602118 0
-0.294194 -0.606694 0
-1.49254e-16 -0.8125 0
0.0992743 -0.810212 0
-1.32032e-16 -0.71875 0
0.0864114 -0.715318 0
0.0992743 -0.810212 0
0.198549 -0.807924 0
0.0864114 -0.715318 0
0.172823 -0.711885 0
-1.32032e-16 -0.71875 0
0.0864114 -0.715318 0
-1.14811e-16 -0.625 0
0.0735485 -0.620424 0
0.0864114 -0.715318 0
0.172823 -0.711885 0
0.0735485 -0.620424 0
0.147097 -0.615847 0
0.397097 -0.803347 0
0.496371 -0.801059 0
0.345646 -0.705021 0
0.432057 -0.701588 0
0.496371 -0.801059 0
0.595646 -0.798771 0
0.432057 -0.701588 0
0.518468 -0.698156 0
0.345646 -0.705021 0
0.432057 -0.701588 0
0.294194 -0.606694 0
0.367743 -0.602118 0
0.432057 -0.701588 0
0.518468 -0.698156 0
0.367743 -0.602118 0
0.441291 -0.597541 0
1 -0.875 0
1 -0.75 0
0.898241 -0.78496 0
0.899385 -0.672823 0
0.898241 -0.78496 0
0.899385 -0.672823 0
0.796482 -0.69492 0
0.798771 -0.595646 0
2.80335 0.397097 0
2.80106 0.496371 0
2.70502 0.345646 0
2.70159 0.432057 0
2.80106 0.496371 0
2.79877 0.595646 0
2.70159 0.432057 0
2.69816 0.518468 0
2.70502 0.345646 0
2.70159 0.432057 0
2.60669 0.294194 0
2.60212 0.367743 0
2.70159 0.432057 0
[...]
POINT_DATA 28940
SCALARS solution double 1
LOOKUP_TABLE default
-0.0300606 -0.00858642 0.000204308 0.0171932 -0.00858642 0.00357293 0.0171932 0.0229392 0.000204308 0.0171932 0.0386336 0.0566517 0.0171932 0.0229392 0.0566517 0.0600188 0.00357293 0.00493466 0.0229392 0.0198868 0.00493466 1.46642e-08 0.0198868 0.0126089 0.0229392 0.0198868 0.0600188 0.0526549 0.0198868 0.0126089 0.0526549 0.0401746 1.46642e-08 0.00509831 0.0126089 0.0200177 0.00509831 0.00389935 0.0200177 0.0231973 0.0126089 0.0200177 0.0401746 0.0527525 0.0200177 0.0231973 0.0527525 0.0602107 0.00389935 -0.00809948 0.0231973 0.0175705 -0.00809948 -0.0294311 0.0175705 0.00068215 0.0231973 0.0175705 0.0602107 0.0569316 0.0175705 0.00068215 0.0569316 0.0389886 -0.0294311 -0.0509211 0.00068215 -0.0225527 -0.0509211 -0.0629452 -0.0225527 -0.0469524 0.00068215 -0.0225527 0.0389886 0.0130234 -0.0225527 -0.0469524 0.0130234 -0.017603 -0.0629452 -0.0622151 -0.0469524 -0.0727539 -0.0469524 -0.0727539 -0.017603 -0.043531 -0.0628591 -0.0636608 -0.0732926 -0.0475099 -0.0732926 -0.0475099 -0.0439511 -0.0180229 -0.0636608 -0.0516355 -0.0475099 -0.0230911 -0.0516355 -0.0300606 -0.0230911 0.000204308 -0.0475099 -0.0230911 -0.0180229 0.0126242 -0.0230911 0.000204308 0.0126242 0.0386336 0.0622151 0.0629453 0.0639355 0.0800161 0.0639355 0.0800161 0.116072 0.122919 0.0629453 0.0509211 0.0800161 0.0766911 0.0509211 0.0294311 0.0766911 0.0594325 0.0800161 0.0766911 0.122919 0.117631 0.0766911 0.0594325 0.117631 0.0973406 0.0294311 0.00809951 0.0594325 0.0361573 0.00809951 -0.00389932 0.0361573 0.0148627 0.0594325 0.0361573 0.0973406 0.0693372 0.0361573 0.0148627 0.0693372 0.0378324 -0.00389932 -0.00509828 0.0148627 0.0025219 -0.00509828 1.46642e-08 0.0025219 -0.000135037 0.0148627 0.0025219 0.0378324 0.0133331 0.0025219 -0.000135037 0.0133331 -0.00026898 -0.0300606 -0.0602488 -0.00858642 -0.0368316 -0.0602488 -0.098395 -0.0368316 -0.0702225 -0.00858642 -0.0368316 0.00357293 -0.0153934 -0.0368316 -0.0702225 -0.0153934 -0.0385729 0.00357293 -0.0153934 0.00493466 -0.00291977 -0.0153934 -0.0385729 -0.00291977 -0.0139625 0.00493466 -0.00291977 1.46642e-08 -0.000135037 -0.00291977 -0.0139625 -0.000135037 -0.00026898 -0.0628591 -0.0648286 -0.0636608 -0.0809598 -0.0648286 -0.117314 -0.0809598 -0.12419 -0.0636608 -0.0809598 -0.0516355 -0.0776131 -0.0809598 -0.12419 -0.0776131 -0.118846 -0.0516355 -0.0776131 -0.0300606 -0.0602488 -0.0776131 -0.118846 -0.0602488 -0.098395 0.0300607 0.0516355 0.0602489 0.0776132 0.0516355 0.0636608 0.0776132 0.0809598 0.0602489 0.0776132 0.098395 0.118846 0.0776132 0.0809598 0.118846 0.12419 0.0636608 0.0628592 0.0809598 0.0648286 0.0809598 0.0648286 0.12419 0.117314 -0.0294311 -0.0594325 -0.0509211 -0.0766911 -0.0594325 -0.0973407 -0.0766911 -0.117631 -0.0509211 -0.0766911 -0.0629452 -0.0800161 -0.0766911 -0.117631 -0.0800161 -0.122919 -0.0629452 -0.0800161 -0.0622151 -0.0639355 -0.0800161 -0.122919 -0.0639355 -0.116072 1.46642e-08 0.000135061 0.00509831 -0.00252188 0.000135061 0.000268993 -0.00252188 -0.0133331 0.00509831 -0.00252188 0.00389935 -0.0148627 -0.00252188 -0.0133331 -0.0148627 -0.0378324 0.00389935 -0.0148627 -0.00809948 -0.0361573 -0.0148627 -0.0378324 -0.0361573 -0.0693372 -0.00809948 -0.0361573 -0.0294311 -0.0594325 -0.0361573 -0.0693372 -0.0594325 -0.0973407 1.46642e-08 -0.00493463 0.000135061 0.00291979 -0.00493463 -0.0035729 0.00291979 0.0153934 0.000135061 0.00291979 0.000268993 0.0139625 0.00291979 0.0153934 0.0139625 0.0385729 -0.0035729 0.00858644 0.0153934 0.0368316 0.00858644 0.0300607 0.0368316 0.0602489 0.0153934 0.0368316 0.0385729 0.0702225 0.0368316 0.0602489 0.0702225 0.098395 0.0300607 -0.000204297 0.0516355 0.0230911 -0.000204297 -0.0386336 0.0230911 -0.0126242 0.0516355 0.0230911 0.0636608 0.0475099 0.0230911 -0.0126242 0.0475099 0.0180228 0.0636608 0.0475099 0.0628592 0.0732927 0.0475099 0.0180228 0.0732927 0.043951 1.46642e-08 -0.0126089 -0.00493463 -0.0198867 -0.0126089 -0.0401746 -0.0198867 -0.0526548 -0.00493463 -0.0198867 -0.0035729 -0.0229392 -0.0198867 -0.0526548 -0.0229392 -0.0600188 -0.0035729 -0.0229392 0.00858644 -0.0171932 -0.0229392 -0.0600188 -0.0171932 -0.0566517 0.00858644 -0.0171932 0.0300607 -0.000204297 -0.0171932 -0.0566517 -0.000204297 -0.0386336 0.0294311 -0.000682121 0.00809951 -0.0175704 -0.000682121 -0.0389885 -0.0175704 -0.0569316 0.00809951 -0.0175704 -0.00389932 -0.0231973 -0.0175704 -0.0569316 -0.0231973 -0.0602107 -0.00389932 -0.0231973 -0.00509828 -0.0200177 -0.0231973 -0.0602107 -0.0200177 -0.0527524 -0.00509828 -0.0200177 1.46642e-08 -0.0126089 -0.0200177 -0.0527524 -0.0126089 -0.0401746 0.0622151 0.0727539 0.0629453 0.0469524 0.0727539 0.043531 0.0469524 0.017603 0.0629453 0.0469524 0.0509211 0.0225527 0.0469524 0.017603 0.0225527 -0.0130234 0.0509211 0.0225527 0.0294311 -0.000682121 0.0225527 -0.0130234 -0.000682121 -0.0389885 -0.0622151 -0.0551888 -0.0784233 -0.0994048 -0.0784233 -0.0994048 -0.0727539 -0.0925547 -0.0989051 -0.0572754 -0.0639298 -0.0491956 -0.0572754 -0.0191127 -0.0491956 -0.0411216 -0.0639298 -0.0491956 -0.0558121 -0.0568495 -0.0491956 -0.0411216 -0.0568495 -0.0632395 -0.0191127 -0.000847357 -0.0411216 -0.0441273 -0.0411216 -0.0441273 -0.0632395 -0.0756101 -0.0441273 -0.0598399 -0.0756101 -0.093459 -0.0102739 -0.0477183 -0.0598399 -0.0865435 -0.0477183 -0.105073 -0.0865435 -0.118567 -0.0598399 -0.0865435 -0.093459 -0.114366 -0.0865435 -0.118567 -0.114366 -0.135242 -0.130666 -0.0496664 -0.141813 -0.10524 -0.141813 -0.10524 -0.157886 -0.141034 -0.10524 -0.0547738 -0.141034 -0.117326 -0.0496907 -0.130708 -0.105271 -0.141861 -0.0547914 -0.105271 -0.117348 -0.14107 -0.105271 -0.141861 -0.14107 -0.157938 -0.105201 -0.0478822 -0.118704 -0.0867176 -0.0478822 -0.0105027 -0.0867176 -0.0600609 -0.118704 -0.0867176 -0.135379 -0.114536 -0.0867176 -0.0600609 -0.114536 -0.0936248 -0.0193683 -0.0575952 -0.0413835 -0.049507 -0.0575952 -0.0992795 -0.049507 -0.0642832 -0.0413835 -0.049507 -0.063514 -0.0571425 -0.049507 -0.0642832 -0.0571425 -0.0561399 -0.0557546 -0.0628591 -0.0999587 -0.0790178 -0.0999587 -0.0790178 -0.093072 -0.0732926 0.157622 0.103842 0.157864 0.134799 0.103842 0.0487563 0.134799 0.105158 0.157864 0.134799 0.162825 0.152723 0.134799 0.105158 0.152723 0.137187 0.0126926 0.00400687 0.0765116 0.0554477 0.105158 0.0765116 0.137187 0.118762 0.0765116 0.0554477 0.118762 0.100732 0.0551888 0.0622151 0.0253739 0.0513734 0.0253739 0.0513734 0.0427636 0.0639355 -0.0557546 -0.0260881 -0.0628591 -0.0521349 -0.0260881 -0.0436141 -0.0521349 -0.0648286 -0.00480938 -0.0135765 -0.0564065 -0.0775624 -0.0564065 -0.0775624 -0.101883 -0.120011 -0.0775624 -0.106304 -0.120011 -0.138601 -0.0497249 -0.104904 -0.106304 -0.136029 -0.104904 -0.158772 -0.136029 -0.159161 -0.106304 -0.136029 -0.138601 -0.154052 -0.136029 -0.159161 -0.154052 -0.164389 -0.0921698 -0.025141 -0.104623 -0.0648838 -0.025141 0.0210348 -0.0648838 -0.0306233 -0.104623 -0.0648838 -0.12018 -0.0932775 -0.0648838 -0.0306233 -0.0932775 -0.0662298 0.0281886 0.00100179 0.00243238 0.00209797 0.00100179 -0.0246929 0.00209797 -0.00322871 0.00243238 0.00209797 -0.0243995 -0.0124357 0.00209797 -0.00322871 -0.0124357 -0.00574783 -0.0246929 -0.0296323 -0.00322871 -0.00649081 -0.0296323 -0.000442109 -0.00649081 -0.000481831 -0.00322871 -0.00649081 -0.00574783 -0.00265074 -0.00649081 -0.000481831 -0.00265074 -0.000531085 -0.000442109 0.0287184 -0.000481831 0.0054919 0.0287184 0.0237542 0.0054919 0.0021922 -0.000481831 0.0054919 -0.000531085 0.00154736 0.0054919 0.0021922 0.00154736 0.00461045 0.0237542 -0.00197462 0.0021922 -0.00317728 -0.00197462 -0.0292128 -0.00317728 -0.00356059 0.0021922 -0.00317728 0.00461045 0.011252 -0.00317728 -0.00356059 0.011252 0.0231659 -0.0221649 0.0239694 0.0293871 0.0635944 0.0239694 0.0909628 0.0635944 0.103288 0.0293871 0.0635944 0.0648763 0.091868 0.0635944 0.103288 0.091868 0.118702 0.0628592 0.0557547 0.052135 0.0260882 0.052135 0.0260882 0.0648286 0.0436142 0.00480943 0.0135765 0.0564065 0.0775625 0.0564065 0.0775625 0.101883 0.120011 0.0775625 0.106304 0.120011 0.138601 0.049725 0.104904 0.106304 0.136029 0.104904 0.158772 0.136029 0.159161 0.106304 0.136029 0.138601 0.154052 0.136029 0.159161 0.154052 0.164389 0.0921698 0.025141 0.104623 0.0648838 0.025141 -0.0210348 0.0648838 0.0306233 0.104623 0.0648838 0.12018 0.0932775 0.0648838 0.0306233 0.0932775 0.0662298 -0.0281886 -0.00100179 -0.00243238 -0.00209797 -0.00100179 0.0246929 -0.00209797 0.00322871 -0.00243238 -0.00209797 0.0243994 0.0124357 -0.00209797 0.00322871 0.0124357 0.00574783 0.0246929 0.0296323 0.00322871 0.00649081 0.0296323 0.000442112 0.00649081 0.000481832 0.00322871 0.00649081 0.00574783 0.00265073 0.00649081 0.000481832 0.00265073 0.000531083 0.000442112 -0.0287184 0.000481832 -0.0054919 -0.0287184 -0.0237542 -0.0054919 -0.0021922 0.000481832 -0.0054919 0.000531083 -0.00154736 -0.0054919 -0.0021922 -0.00154736 -0.00461045 -0.0237542 0.00197462 -0.0021922 0.00317728 0.00197462 0.0292128 0.00317728 0.00356058 -0.0021922 0.00317728 -0.00461045 -0.011252 0.00317728 0.00356058 -0.011252 -0.0231659 0.0221649 -0.0239694 -0.0293871 -0.0635944 -0.0239694 -0.0909628 -0.0635944 -0.103288 -0.0293871 -0.0635944 -0.0648763 -0.0918681 -0.0635944 -0.103288 -0.0918681 -0.118702 -0.157622 -0.103842 -0.157864 -0.134799 -0.103842 -0.0487563 -0.134799 -0.105158 -0.157864 -0.134799 -0.162825 -0.152723 -0.134799 -0.105158 -0.152723 -0.137187 -0.0126926 -0.00400685 -0.0765116 -0.0554477 -0.105158 -0.0765116 -0.137187 -0.118762 -0.0765116 -0.0554477 -0.118762 -0.100732 -0.0622151 -0.0513734 -0.0551888 -0.0253739 -0.0513734 -0.0639355 -0.0253739 -0.0427635 0.130666 0.0496663 0.141813 0.10524 0.141813 0.10524 0.157886 0.141033 0.10524 0.0547737 0.141033 0.117326 0.0496906 0.130708 0.105271 0.14186 0.0547913 0.105271 0.117347 0.141069 0.105271 0.14186 0.141069 0.157938 0.105202 0.0478881 0.118702 0.0867123 0.0478881 0.0104833 0.0867123 0.0600445 0.118702 0.0867123 0.135379 0.114532 0.0867123 0.0600445 0.114532 0.0936556 0.00109181 0.019392 0.0443671 0.0413965 0.0600445 0.0443671 0.0936556 0.0758388 0.0443671 0.0413965 0.0758388 0.0635002 0.019392 0.0575968 0.0413965 0.0495076 0.0575968 0.0992799 0.0495076 0.0642835 0.0413965 0.0495076 0.0635002 0.0571428 0.0495076 0.0642835 0.0571428 0.0561398 0.0628592 0.0790179 0.0557547 0.0999589 0.0790179 0.0732927 0.0999589 0.0930721 0.0551888 0.0994048 0.0622151 0.0784234 0.0994048 0.0925547 0.0784234 0.0727539 0.0989052 0.0572754 0.0639298 0.0491957 0.0572754 0.0191127 0.0491957 0.0411217 0.0639298 0.0491957 0.0558121 0.0568496 0.0491957 0.0411217 0.0568496 0.0632395 0.0191127 0.000847381 0.0411217 0.0441273 0.0411217 0.0441273 0.0632395 0.0756101 0.0441273 0.0598399 0.0756101 0.093459 0.010274 0.0477183 0.0598399 0.0865435 0.0477183 0.105073 0.0865435 0.118567 0.0598399 0.0865435 0.093459 0.114366 0.0865435 0.118567 0.114366 0.135242 0.0566517 0.0599839 0.0857807 0.0896714 0.0599839 0.0600188 0.0896714 0.0895996 0.0857807 0.0896714 0.128214 0.132897 0.0896714 0.0895996 0.132897 0.133167 0.0600188 0.0572303 0.0895996 0.0863853 0.0572303 0.0526549 0.0863853 0.080713 0.0895996 0.0863853 0.133167 0.129692 0.0863853 0.080713 0.129692 0.123621 0.0527525 0.0573755 0.0807951 0.0865079 0.0573755 0.0602107 0.0865079 0.089762 0.0807951 0.0865079 0.12369 0.129795 0.0865079 0.089762 0.129795 0.133304 0.0602107 0.0602209 0.089762 0.0898725 0.0602209 0.0569316 0.0898725 0.0860188 0.089762 0.0898725 0.133304 0.133066 0.0898725 0.0860188 0.133066 0.128414 0.0130234 -0.00245112 0.0374771 0.0196528 -0.00245112 -0.017603 0.0196528 0.00158957 0.0374771 0.0196528 0.0734547 0.0520548 0.0196528 0.00158957 0.0520548 0.0285234 -0.017603 -0.031483 0.00158957 -0.0150021 -0.031483 -0.043531 -0.0150021 -0.0293434 0.00158957 -0.0150021 0.0285234 0.00549432 -0.0150021 -0.0293434 0.00549432 -0.0131739 -0.12668 -0.125494 -0.0898031 -0.0794027 -0.125494 -0.0989051 -0.0794027 -0.0639298 -0.0898031 -0.0794027 -0.0627399 -0.0585918 -0.0794027 -0.0639298 -0.0585918 -0.0558121 -0.0558121 -0.0568495 -0.0597574 -0.0705396 -0.0568495 -0.0632395 -0.0705396 -0.0850709 -0.0597574 -0.0705396 -0.0710177 -0.088598 -0.0705396 -0.0850709 -0.088598 -0.111261 -0.0632395 -0.0756101 -0.0850709 -0.102994 -0.0756101 -0.093459 -0.102994 -0.122705 -0.0850709 -0.102994 -0.111261 -0.135559 -0.102994 -0.122705 -0.135559 -0.158679 -0.105073 -0.159035 -0.118567 -0.14727 -0.159035 -0.18529 -0.14727 -0.162844 -0.118567 -0.14727 -0.135242 -0.153624 -0.14727 -0.162844 -0.153624 -0.164402 -0.18529 -0.176656 -0.162844 -0.161385 -0.176656 -0.130666 -0.161385 -0.141813 -0.162844 -0.161385 -0.164402 -0.165816 -0.161385 -0.141813 -0.165816 -0.157886 -0.0547738 0.00595562 -0.117326 -0.0886754 0.00595562 0.0747935 -0.0886754 -0.0583208 -0.164402 -0.165816 -0.183228 -0.186608 -0.165816 -0.157886 -0.186608 -0.183817 -0.183228 -0.186608 -0.220601 -0.225166 -0.186608 -0.183817 -0.225166 -0.225733 0.0747935 0.00594893 -0.0583208 -0.0886851 0.00594893 -0.0547914 -0.0886851 -0.117348 -0.130708 -0.176716 -0.141861 -0.16145 -0.176716 -0.185367 -0.16145 -0.162928 -0.141861 -0.16145 -0.157938 -0.165886 -0.16145 -0.162928 -0.165886 -0.16449 -0.185367 -0.159134 -0.162928 -0.147377 -0.159134 -0.105201 -0.147377 -0.118704 -0.162928 -0.147377 -0.16449 -0.153736 -0.147377 -0.118704 -0.153736 -0.135379 -0.157938 -0.165886 -0.183872 -0.18668 -0.165886 -0.16449 -0.18668 -0.183318 -0.183872 -0.18668 -0.225787 -0.225237 -0.18668 -0.183318 -0.225237 -0.220689 -0.0105027 -0.00103999 -0.0600609 -0.0443752 -0.00103999 -0.0193683 -0.0443752 -0.0413835 -0.0600609 -0.0443752 -0.0936248 -0.0758417 -0.0443752 -0.0413835 -0.0758417 -0.063514 -0.0992795 -0.125925 -0.0642832 -0.0798033 -0.125925 -0.127169 -0.0798033 -0.0902552 -0.0642832 -0.0798033 -0.0561399 -0.0589574 -0.0798033 -0.0902552 -0.0589574 -0.0631454 -0.0936248 -0.0758417 -0.122888 -0.103204 -0.0758417 -0.063514 -0.103204 -0.0853123 -0.122888 -0.103204 -0.158843 -0.135748 -0.103204 -0.0853123 -0.135748 -0.111474 -0.063514 -0.0571425 -0.0853123 -0.0708106 -0.0571425 -0.0561399 -0.0708106 -0.0600548 -0.0853123 -0.0708106 -0.111474 -0.0888358 -0.0708106 -0.0600548 -0.0888358 -0.0712836 -0.0439511 -0.031905 -0.0297072 -0.0153664 -0.031905 -0.0180229 -0.0153664 0.00122852 -0.0297072 -0.0153664 -0.013488 0.00518196 -0.0153664 0.00122852 0.00518196 0.0282158 -0.0180229 -0.00286356 0.00122852 0.0192993 -0.00286356 0.0126242 0.0192993 0.0371357 0.00122852 0.0192993 0.0282158 0.0517545 0.0192993 0.0371357 0.0517545 0.0731649 0.0909628 0.154047 0.103288 0.139275 0.154047 0.188713 0.139275 0.161876 0.103288 0.139275 0.118702 0.142607 0.139275 0.161876 0.142607 0.158596 0.188713 0.189499 0.161876 0.167968 0.189499 0.157622 0.167968 0.157864 0.161876 0.167968 0.158596 0.165202 0.167968 0.157864 0.165202 0.162825 0.158596 0.165202 0.172766 0.179221 0.165202 0.162825 0.179221 0.179366 0.172766 0.179221 0.206246 0.212632 0.179221 0.179366 0.212632 0.213545 0.122919 0.122018 0.154644 0.152991 0.122018 0.117631 0.152991 0.147381 0.154644 0.152991 0.198983 0.196733 0.152991 0.147381 0.196733 0.190051 0.0693372 0.0532086 0.0923613 0.0731261 0.0532086 0.0378324 0.0731261 0.0538316 0.0923613 0.0731261 0.127073 0.103699 0.0731261 0.0538316 0.103699 0.0782692 0.0378324 0.0242733 0.0538316 0.0362008 0.0242733 0.0133331 0.0362008 0.0209904 0.0538316 0.0362008 0.0782692 0.0535 0.0362008 0.0209904 0.0535 0.0331671 -0.0702225 -0.0933621 -0.0540166 -0.0740391 -0.0933621 -0.128196 -0.0740391 -0.104708 -0.0540166 -0.0740391 -0.0385729 -0.0546733 -0.0740391 -0.104708 -0.0546733 -0.0791951 -0.0385729 -0.0546733 -0.0249556 -0.0369853 -0.0546733 -0.0791951 -0.0369853 -0.0543719 -0.0249556 -0.0369853 -0.0139625 -0.0217294 -0.0369853 -0.0543719 -0.0217294 -0.0339957 -0.12419 -0.156169 -0.123273 -0.15449 -0.156169 -0.200927 -0.15449 -0.198608 -0.123273 -0.15449 -0.118846 -0.14881 -0.15449 -0.198608 -0.14881 -0.191802 -0.158772 -0.190712 -0.159161 -0.169314 -0.190712 -0.189955 -0.169314 -0.163241 -0.159161 -0.169314 -0.164389 -0.166694 -0.169314 -0.163241 -0.166694 -0.160123 -0.189955 -0.155285 -0.163241 -0.140636 -0.155285 -0.0921698 -0.140636 -0.104623 -0.163241 -0.140636 -0.160123 -0.144102 -0.140636 -0.104623 -0.144102 -0.12018 -0.164389 -0.166694 -0.180968 -0.180891 -0.166694 -0.160123 -0.180891 -0.174423 -0.180968 -0.180891 -0.215834 -0.214219 -0.180891 -0.174423 -0.214219 -0.20815 0.0210348 0.0383201 -0.0306233 -0.00770848 0.0383201 0.0281886 -0.00770848 0.00243238 -0.0306233 -0.00770848 -0.0662298 -0.0424623 -0.00770848 0.00243238 -0.0424623 -0.0243995 -0.0662298 -0.0424623 -0.0974216 -0.072954 -0.0424623 -0.0243995 -0.072954 -0.0504497 -0.0974216 -0.072954 -0.135516 -0.108804 -0.072954 -0.0504497 -0.108804 -0.080672 -0.0243995 -0.0124357 -0.0504497 -0.0316982 -0.0124357 -0.00574783 -0.0316982 -0.0171467 -0.0504497 -0.0316982 -0.080672 -0.0541829 -0.0316982 -0.0171467 -0.0541829 -0.0331358 -0.0292128 -0.0394002 -0.00356059 0.00652724 -0.0394002 -0.0221649 0.00652724 0.0293871 -0.00356059 0.00652724 0.0231659 0.041172 0.00652724 0.0293871 0.041172 0.0648763 0.00461045 0.011252 0.015899 0.0304077 0.011252 0.0231659 0.0304077 0.0491032 0.015899 0.0304077 0.0317929 0.0527793 0.0304077 0.0491032 0.0527793 0.0792066 0.0231659 0.041172 0.0491032 0.0715381 0.041172 0.0648763 0.0715381 0.0959228 0.0491032 0.0715381 0.0792066 0.107238 0.0715381 0.0959228 0.107238 0.133808 0.118846 0.123273 0.14881 0.15449 0.123273 0.12419 0.15449 0.156169 0.14881 0.15449 0.191802 0.198608 0.15449 0.156169 0.198608 0.200927 0.158772 0.190712 0.159161 0.169314 0.190712 0.189955 0.169314 0.163241 0.159161 0.169314 0.164389 0.166694 0.169314 0.163241 0.166694 0.160123 0.189955 0.155285 0.163241 0.140636 0.155285 0.0921698 0.140636 0.104623 0.163241 0.140636 0.160123 0.144102 0.140636 0.104623 0.144102 0.12018 0.164389 0.166694 0.180968 0.180891 0.166694 0.160123 0.180891 0.174423 0.180968 0.180891 0.215834 0.214219 0.180891 0.174423 0.214219 0.20815 -0.0210348 -0.0383201 0.0306233 0.00770848 -0.0383201 -0.0281886 0.00770848 -0.00243238 0.0306233 0.00770848 0.0662298 0.0424623 0.00770848 -0.00243238 0.0424623 0.0243994 0.0662298 0.0424623 0.0974216 0.072954 0.0424623 0.0243994 0.072954 0.0504497 0.0974216 0.072954 0.135516 0.108804 0.072954 0.0504497 0.108804 0.080672 0.0243994 0.0124357 0.0504497 0.0316982 0.0124357 0.00574783 0.0316982 0.0171467 0.0504497 0.0316982 0.080672 0.0541829 0.0316982 0.0171467 0.0541829 0.0331358 0.0292128 0.0394001 0.00356058 -0.00652725 0.0394001 0.0221649 -0.00652725 -0.0293871 0.00356058 -0.00652725 -0.0231659 -0.041172 -0.00652725 -0.0293871 -0.041172 -0.0648763 -0.00461045 -0.011252 -0.015899 -0.0304077 -0.011252 -0.0231659 -0.0304077 -0.0491032 -0.015899 -0.0304077 -0.0317929 -0.0527793 -0.0304077 -0.0491032 -0.0527793 -0.0792066 -0.0231659 -0.041172 -0.0491032 -0.0715381 -0.041172 -0.0648763 -0.0715381 -0.0959228 -0.0491032 -0.0715381 -0.0792066 -0.107238 -0.0715381 -0.0959228 -0.107238 -0.133808 -0.0909628 -0.154047 -0.103288 -0.139275 -0.154047 -0.188713 -0.139275 -0.161876 -0.103288 -0.139275 -0.118702 -0.142607 -0.139275 -0.161876 -0.142607 -0.158596 -0.188713 -0.189499 -0.161876 -0.167968 -0.189499 -0.157622 -0.167968 -0.157864 -0.161876 -0.167968 -0.158596 -0.165202 -0.167968 -0.157864 -0.165202 -0.162825 -0.158596 -0.165202 -0.172767 -0.179221 -0.165202 -0.162825 -0.179221 -0.179366 -0.172767 -0.179221 -0.206246 -0.212632 -0.179221 -0.179366 -0.212632 -0.213545 -0.117631 -0.147381 -0.122018 -0.152991 -0.147381 -0.190051 -0.152991 -0.196733 -0.122018 -0.152991 -0.122919 -0.154644 -0.152991 -0.196733 -0.154644 -0.198983 -0.0133331 -0.0209904 -0.0242733 -0.0362008 -0.0209904 -0.0331671 -0.0362008 -0.0535 -0.0242733 -0.0362008 -0.0378324 -0.0538316 -0.0362008 -0.0535 -0.0538316 -0.0782692 -0.0378324 -0.0538316 -0.0532086 -0.0731261 -0.0538316 -0.0782692 -0.0731261 -0.103699 -0.0532086 -0.0731261 -0.0693372 -0.0923614 -0.0731261 -0.103699 -0.0923614 -0.127073 0.0139625 0.0249556 0.0217294 0.0369853 0.0249556 0.0385729 0.0369853 0.0546733 0.0217294 0.0369853 0.0339957 0.0543718 0.