# vtk DataFile Version 3.0
#This file was generated by the deal.II library on 2015/4/21 at 16:36:27
ASCII
DATASET UNSTRUCTURED_GRID

POINTS 15176 double
1 0 0
1 0.25 0
0.8125 0 0
0.807924 0.198549 0
1 0.25 0
1 0.5 0
0.807924 0.198549 0
0.803347 0.397097 0
0.8125 0 0
0.807924 0.198549 0
0.625 0 0
0.615847 0.147097 0
0.807924 0.198549 0
0.803347 0.397097 0
0.615847 0.147097 0
0.606694 0.294194 0
1 0.5 0
1 0.75 0
0.803347 0.397097 0
0.798771 0.595646 0
1 0.75 0
1 1 0
0.798771 0.595646 0
0.794194 0.794194 0
0.803347 0.397097 0
0.798771 0.595646 0
0.606694 0.294194 0
0.597541 0.441291 0
0.798771 0.595646 0
0.794194 0.794194 0
0.597541 0.441291 0
0.588388 0.588388 0
1 1 0
0.75 1 0
0.794194 0.794194 0
0.595646 0.798771 0
0.75 1 0
0.5 1 0
0.595646 0.798771 0
0.397097 0.803347 0
0.794194 0.794194 0
0.595646 0.798771 0
0.588388 0.588388 0
0.441291 0.597541 0
0.595646 0.798771 0
0.397097 0.803347 0
0.441291 0.597541 0
0.294194 0.606694 0
0.5 1 0
0.25 1 0
0.397097 0.803347 0
0.198549 0.807924 0
0.25 1 0
6.12323e-17 1 0
0.198549 0.807924 0
4.97513e-17 0.8125 0
0.397097 0.803347 0
0.198549 0.807924 0
0.294194 0.606694 0
0.147097 0.615847 0
0.198549 0.807924 0
4.97513e-17 0.8125 0
0.147097 0.615847 0
3.82702e-17 0.625 0
6.12323e-17 1 0
-0.25 1 0
4.97513e-17 0.8125 0
-0.198549 0.807924 0
-0.25 1 0
-0.5 1 0
-0.198549 0.807924 0
-0.397097 0.803347 0
4.97513e-17 0.8125 0
-0.198549 0.807924 0
3.82702e-17 0.625 0
-0.147097 0.615847 0
-0.198549 0.807924 0
-0.397097 0.803347 0
-0.147097 0.615847 0
-0.294194 0.606694 0
-0.5 1 0
-0.75 1 0
-0.397097 0.803347 0
-0.595646 0.798771 0
-0.397097 0.803347 0
-0.595646 0.798771 0
-0.294194 0.606694 0
-0.441291 0.597541 0
1 -0.75 0
1 -0.5 0
0.798771 -0.595646 0
0.803347 -0.397097 0
0.798771 -0.595646 0
0.803347 -0.397097 0
0.597541 -0.441291 0
0.606694 -0.294194 0
1 -0.5 0
1 -0.25 0
0.803347 -0.397097 0
0.807924 -0.198549 0
1 -0.25 0
1 0 0
0.807924 -0.198549 0
0.8125 0 0
0.803347 -0.397097 0
0.807924 -0.198549 0
0.606694 -0.294194 0
0.615847 -0.147097 0
0.807924 -0.198549 0
0.8125 0 0
0.615847 -0.147097 0
0.625 0 0
2.75 1 0
2.5 1 0
2.59565 0.798771 0
2.3971 0.803347 0
2.59565 0.798771 0
2.3971 0.803347 0
2.44129 0.597541 0
2.29419 0.606694 0
2.5 1 0
2.25 1 0
2.3971 0.803347 0
2.19855 0.807924 0
2.25 1 0
2 1 0
2.19855 0.807924 0
2 0.8125 0
2.3971 0.803347 0
2.19855 0.807924 0
2.29419 0.606694 0
2.1471 0.615847 0
2.19855 0.807924 0
2 0.8125 0
2.1471 0.615847 0
2 0.625 0
2 1 0
1.75 1 0
2 0.8125 0
1.80145 0.807924 0
1.75 1 0
1.5 1 0
1.80145 0.807924 0
1.6029 0.803347 0
2 0.8125 0
1.80145 0.807924 0
2 0.625 0
1.8529 0.615847 0
1.80145 0.807924 0
1.6029 0.803347 0
1.8529 0.615847 0
1.70581 0.606694 0
1.5 1 0
1.25 1 0
1.6029 0.803347 0
1.40435 0.798771 0
1.25 1 0
1 1 0
1.40435 0.798771 0
1.20581 0.794194 0
1.6029 0.803347 0
1.40435 0.798771 0
1.70581 0.606694 0
1.55871 0.597541 0
1.40435 0.798771 0
1.20581 0.794194 0
1.55871 0.597541 0
1.41161 0.588388 0
1 0 0
1.1875 7.65404e-18 0
1 0.25 0
1.19208 0.198549 0
1.1875 7.65404e-18 0
1.375 1.53081e-17 0
1.19208 0.198549 0
1.38415 0.147097 0
1 0.25 0
1.19208 0.198549 0
1 0.5 0
1.19665 0.397097 0
1.19208 0.198549 0
1.38415 0.147097 0
1.19665 0.397097 0
1.39331 0.294194 0
1 0.5 0
1.19665 0.397097 0
1 0.75 0
1.20123 0.595646 0
1.19665 0.397097 0
1.39331 0.294194 0
1.20123 0.595646 0
1.40246 0.441291 0
1 0.75 0
1.20123 0.595646 0
1 1 0
1.20581 0.794194 0
1.20123 0.595646 0
1.40246 0.441291 0
1.20581 0.794194 0
1.41161 0.588388 0
1 -0.75 0
1.20123 -0.595646 0
1 -0.5 0
1.19665 -0.397097 0
1.20123 -0.595646 0
1.40246 -0.441291 0
1.19665 -0.397097 0
1.39331 -0.294194 0
1 -0.5 0
1.19665 -0.397097 0
1 -0.25 0
1.19208 -0.198549 0
1.19665 -0.397097 0
1.39331 -0.294194 0
1.19208 -0.198549 0
1.38415 -0.147097 0
1 -0.25 0
1.19208 -0.198549 0
1 0 0
1.1875 7.65404e-18 0
1.19208 -0.198549 0
1.38415 -0.147097 0
1.1875 7.65404e-18 0
1.375 1.53081e-17 0
1.8529 -0.615847 0
2 -0.625 0
1.90435 -0.423771 0
2 -0.4375 0
1 2 0
1 2.25 0
0.8125 2 0
0.807924 2.19855 0
1 2.25 0
1 2.5 0
0.807924 2.19855 0
0.803347 2.3971 0
0.8125 2 0
0.807924 2.19855 0
0.625 2 0
0.615847 2.1471 0
0.807924 2.19855 0
0.803347 2.3971 0
0.615847 2.1471 0
0.606694 2.29419 0
1 2.5 0
1 2.75 0
0.803347 2.3971 0
0.798771 2.59565 0
0.803347 2.3971 0
0.798771 2.59565 0
0.606694 2.29419 0
0.597541 2.44129 0
0.147097 2.61585 0
3.82702e-17 2.625 0
0.0956456 2.42377 0
2.67891e-17 2.4375 0
6.12323e-17 1 0
3.44432e-17 1.1875 0
-0.25 1 0
-0.198549 1.19208 0
3.44432e-17 1.1875 0
7.65404e-18 1.375 0
-0.198549 1.19208 0
-0.147097 1.38415 0
-0.25 1 0
-0.198549 1.19208 0
-0.5 1 0
-0.397097 1.19665 0
-0.198549 1.19208 0
-0.147097 1.38415 0
-0.397097 1.19665 0
-0.294194 1.39331 0
-0.5 1 0
-0.397097 1.19665 0
-0.75 1 0
-0.595646 1.20123 0
-0.397097 1.19665 0
-0.294194 1.39331 0
-0.595646 1.20123 0
-0.441291 1.40246 0
1 1 0
0.794194 1.20581 0
0.75 1 0
0.595646 1.20123 0
0.794194 1.20581 0
0.588388 1.41161 0
0.595646 1.20123 0
0.441291 1.40246 0
0.75 1 0
0.595646 1.20123 0
0.5 1 0
0.397097 1.19665 0
0.595646 1.20123 0
0.441291 1.40246 0
0.397097 1.19665 0
0.294194 1.39331 0
0.5 1 0
0.397097 1.19665 0
0.25 1 0
0.198549 1.19208 0
0.397097 1.19665 0
0.294194 1.39331 0
0.198549 1.19208 0
0.147097 1.38415 0
0.25 1 0
0.198549 1.19208 0
6.12323e-17 1 0
3.44432e-17 1.1875 0
0.198549 1.19208 0
0.147097 1.38415 0
3.44432e-17 1.1875 0
7.65404e-18 1.375 0
1 1 0
1 1.25 0
0.794194 1.20581 0
0.798771 1.40435 0
1 1.25 0
1 1.5 0
0.798771 1.40435 0
0.803347 1.6029 0
0.794194 1.20581 0
0.798771 1.40435 0
0.588388 1.41161 0
0.597541 1.55871 0
0.798771 1.40435 0
0.803347 1.6029 0
0.597541 1.55871 0
0.606694 1.70581 0
1 1.5 0
1 1.75 0
0.803347 1.6029 0
0.807924 1.80145 0
1 1.75 0
1 2 0
0.807924 1.80145 0
0.8125 2 0
0.803347 1.6029 0
0.807924 1.80145 0
0.606694 1.70581 0
0.615847 1.8529 0
0.807924 1.80145 0
0.8125 2 0
0.615847 1.8529 0
0.625 2 0
1 2 0
1.1875 2 0
1 2.25 0
1.19208 2.19855 0
1.1875 2 0
1.375 2 0
1.19208 2.19855 0
1.38415 2.1471 0
1 2.25 0
1.19208 2.19855 0
1 2.5 0
1.19665 2.3971 0
1.19208 2.19855 0
1.38415 2.1471 0
1.19665 2.3971 0
1.39331 2.29419 0
1 2.5 0
1.19665 2.3971 0
1 2.75 0
1.20123 2.59565 0
1.19665 2.3971 0
1.39331 2.29419 0
1.20123 2.59565 0
1.40246 2.44129 0
1 1 0
1.20581 1.20581 0
1 1.25 0
1.20123 1.40435 0
1.20581 1.20581 0
1.41161 1.41161 0
1.20123 1.40435 0
1.40246 1.55871 0
1 1.25 0
1.20123 1.40435 0
1 1.5 0
1.19665 1.6029 0
1.20123 1.40435 0
1.40246 1.55871 0
1.19665 1.6029 0
1.39331 1.70581 0
1 1.5 0
1.19665 1.6029 0
1 1.75 0
1.19208 1.80145 0
1.19665 1.6029 0
1.39331 1.70581 0
1.19208 1.80145 0
1.38415 1.8529 0
1 1.75 0
1.19208 1.80145 0
1 2 0
1.1875 2 0
1.19208 1.80145 0
1.38415 1.8529 0
1.1875 2 0
1.375 2 0
2 1 0
2 1.1875 0
1.75 1 0
1.80145 1.19208 0
2 1.1875 0
2 1.375 0
1.80145 1.19208 0
1.8529 1.38415 0
1.75 1 0
1.80145 1.19208 0
1.5 1 0
1.6029 1.19665 0
1.80145 1.19208 0
1.8529 1.38415 0
1.6029 1.19665 0
1.70581 1.39331 0
1.5 1 0
1.6029 1.19665 0
1.25 1 0
1.40435 1.20123 0
1.6029 1.19665 0
1.70581 1.39331 0
1.40435 1.20123 0
1.55871 1.40246 0
1.25 1 0
1.40435 1.20123 0
1 1 0
1.20581 1.20581 0
1.40435 1.20123 0
1.55871 1.40246 0
1.20581 1.20581 0
1.41161 1.41161 0
2.75 1 0
2.59565 1.20123 0
2.5 1 0
2.3971 1.19665 0
2.59565 1.20123 0
2.44129 1.40246 0
2.3971 1.19665 0
2.29419 1.39331 0
2.5 1 0
2.3971 1.19665 0
2.25 1 0
2.19855 1.19208 0
2.3971 1.19665 0
2.29419 1.39331 0
2.19855 1.19208 0
2.1471 1.38415 0
2.25 1 0
2.19855 1.19208 0
2 1 0
2 1.1875 0
2.19855 1.19208 0
2.1471 1.38415 0
2 1.1875 0
2 1.375 0
0.396312 0.286937 0
0.389447 0.33476 0
0.295697 0.20976 0
0.287688 0.24472 0
0.295697 0.20976 0
0.287688 0.24472 0
0.195083 0.132583 0
0.18593 0.15468 0
0.33476 0.389447 0
0.286937 0.396312 0
0.24472 0.287688 0
0.20976 0.295697 0
0.24472 0.287688 0
0.20976 0.295697 0
0.15468 0.18593 0
0.132583 0.195083 0
-0.75 1 0
-0.875 1 0
-0.672823 0.899385 0
-0.78496 0.898241 0
-0.672823 0.899385 0
-0.78496 0.898241 0
-0.595646 0.798771 0
-0.69492 0.796482 0
-0.798771 0.595646 0
-0.801059 0.496371 0
-0.698156 0.518468 0
-0.701588 0.432057 0
-0.801059 0.496371 0
-0.803347 0.397097 0
-0.701588 0.432057 0
-0.705021 0.345646 0
-0.698156 0.518468 0
-0.701588 0.432057 0
-0.597541 0.441291 0
-0.602118 0.367743 0
-0.701588 0.432057 0
-0.705021 0.345646 0
-0.602118 0.367743 0
-0.606694 0.294194 0
-0.803347 0.397097 0
-0.805635 0.297823 0
-0.705021 0.345646 0
-0.708453 0.259234 0
-0.805635 0.297823 0
-0.807924 0.198549 0
-0.708453 0.259234 0
-0.711885 0.172823 0
-0.705021 0.345646 0
-0.708453 0.259234 0
-0.606694 0.294194 0
-0.611271 0.220646 0
-0.708453 0.259234 0
-0.711885 0.172823 0
-0.611271 0.220646 0
-0.615847 0.147097 0
-0.807924 0.198549 0
-0.810212 0.0992743 0
-0.711885 0.172823 0
-0.715318 0.0864114 0
-0.810212 0.0992743 0
-0.8125 9.95026e-17 0
-0.715318 0.0864114 0
-0.71875 8.80215e-17 0
-0.711885 0.172823 0
-0.715318 0.0864114 0
-0.615847 0.147097 0
-0.620424 0.0735485 0
-0.715318 0.0864114 0
-0.71875 8.80215e-17 0
-0.620424 0.0735485 0
-0.625 7.65404e-17 0
-0.803347 -0.397097 0
-0.801059 -0.496371 0
-0.705021 -0.345646 0
-0.701588 -0.432057 0
-0.801059 -0.496371 0
-0.798771 -0.595646 0
-0.701588 -0.432057 0
-0.698156 -0.518468 0
-0.705021 -0.345646 0
-0.701588 -0.432057 0
-0.606694 -0.294194 0
-0.602118 -0.367743 0
-0.701588 -0.432057 0
-0.698156 -0.518468 0
-0.602118 -0.367743 0
-0.597541 -0.441291 0
-0.4375 5.35783e-17 0
-0.430635 -0.0478228 0
-0.34375 4.20972e-17 0
-0.335741 -0.03496 0
-0.430635 -0.0478228 0
-0.423771 -0.0956456 0
-0.335741 -0.03496 0
-0.327732 -0.0699199 0
-0.335741 -0.03496 0
-0.327732 -0.0699199 0
-0.240847 -0.0220971 0
-0.231694 -0.0441942 0
-0.396312 -0.286937 0
-0.389447 -0.33476 0
-0.295697 -0.20976 0
-0.287688 -0.24472 0
-0.389447 -0.33476 0
-0.382583 -0.382583 0
-0.287688 -0.24472 0
-0.27968 -0.27968 0
-0.295697 -0.20976 0
-0.287688 -0.24472 0
-0.195083 -0.132583 0
-0.18593 -0.15468 0
-0.287688 -0.24472 0
-0.27968 -0.27968 0
-0.18593 -0.15468 0
-0.176777 -0.176777 0
-0.595646 -0.798771 0
-0.496371 -0.801059 0
-0.518468 -0.698156 0
-0.432057 -0.701588 0
-0.496371 -0.801059 0
-0.397097 -0.803347 0
[...]
POINT_DATA 15176
SCALARS solution double 1
LOOKUP_TABLE default
-0.0295261 -0.0082102 0.000619514 0.0175048 -0.0082102 0.00377299 0.0175048 0.0231769 0.000619514 0.0175048 0.0388796 0.0568807 0.0175048 0.0231769 0.0568807 0.0601939 0.00377299 0.00501067 0.0231769 0.0200834 0.00501067 1.65168e-08 0.0200834 0.0127754 0.0231769 0.0200834 0.0601939 0.0528595 0.0200834 0.0127754 0.0528595 0.0404252 1.65168e-08 0.00526833 0.0127754 0.0202903 0.00526833 0.00428761 0.0202903 0.0235857 0.0127754 0.0202903 0.0404252 0.0530149 0.0202903 0.0235857 0.0530149 0.0605005 0.00428761 -0.00744088 0.0235857 0.0181038 -0.00744088 -0.0285285 0.0181038 0.0013796 0.0235857 0.0181038 0.0605005 0.0573289 0.0181038 0.0013796 0.0573289 0.0394486 -0.0285285 -0.049874 0.0013796 -0.0216484 -0.049874 -0.0618458 -0.0216484 -0.0456916 0.0013796 -0.0216484 0.0394486 0.0136061 -0.0216484 -0.0456916 0.0136061 -0.0167557 -0.0618458 -0.0610068 -0.0456916 -0.0706185 -0.0456916 -0.0706185 -0.0167557 -0.042346 -0.0620247 -0.06298 -0.0714754 -0.046579 -0.0714754 -0.046579 -0.0430189 -0.0174288 -0.06298 -0.0510082 -0.046579 -0.0225056 -0.0510082 -0.0295261 -0.0225056 0.000619514 -0.046579 -0.0225056 -0.0174288 0.0129657 -0.0225056 0.000619514 0.0129657 0.0388796 0.0610068 0.0618458 0.0638996 0.0790647 0.0638996 0.0790647 0.114842 0.121391 0.0618458 0.049874 0.0790647 0.0754871 0.049874 0.0285285 0.0754871 0.0582608 0.0790647 0.0754871 0.121391 0.115992 0.0754871 0.0582608 0.115992 0.095688 0.0285285 0.0074409 0.0582608 0.0352224 0.0074409 -0.00428758 0.0352224 0.0142803 0.0582608 0.0352224 0.095688 0.0679 0.0352224 0.0142803 0.0679 0.0368862 -0.00428758 -0.0052683 0.0142803 0.00223875 -0.0052683 1.65168e-08 0.00223875 -0.000212397 0.0142803 0.00223875 0.0368862 0.0128628 0.00223875 -0.000212397 0.0128628 -0.000422234 -0.0295261 -0.0595511 -0.0082102 -0.0362843 -0.0595511 -0.097346 -0.0362843 -0.0692864 -0.0082102 -0.0362843 0.00377299 -0.015115 -0.0362843 -0.0692864 -0.015115 -0.0380469 0.00377299 -0.015115 0.00501067 -0.00286435 -0.015115 -0.0380469 -0.00286435 -0.0138501 0.00501067 -0.00286435 1.65168e-08 -0.000212397 -0.00286435 -0.0138501 -0.000212397 -0.000422234 -0.0620247 -0.065309 -0.06298 -0.0805623 -0.065309 -0.116816 -0.0805623 -0.123428 -0.06298 -0.0805623 -0.0510082 -0.0769513 -0.0805623 -0.123428 -0.0769513 -0.117925 -0.0510082 -0.0769513 -0.0295261 -0.0595511 -0.0769513 -0.117925 -0.0595511 -0.097346 -0.157863 -0.119125 -0.206713 -0.174519 0.0295261 0.0510082 0.0595511 0.0769513 0.0510082 0.06298 0.0769513 0.0805623 0.0595511 0.0769513 0.097346 0.117925 0.0769513 0.0805623 0.117925 0.123428 0.06298 0.0620248 0.0805623 0.065309 0.0805623 0.065309 0.123428 0.116816 0.157863 0.119125 0.206713 0.174519 -0.0285285 -0.0582608 -0.049874 -0.0754872 -0.0582608 -0.0956881 -0.0754872 -0.115992 -0.049874 -0.0754872 -0.0618458 -0.0790647 -0.0754872 -0.115992 -0.0790647 -0.121391 -0.0618458 -0.0790647 -0.0610068 -0.0638996 -0.0790647 -0.121391 -0.0638996 -0.114842 1.65168e-08 0.000212421 0.00526833 -0.00223873 0.000212421 0.000422237 -0.00223873 -0.0128628 0.00526833 -0.00223873 0.00428761 -0.0142803 -0.00223873 -0.0128628 -0.0142803 -0.0368862 0.00428761 -0.0142803 -0.00744088 -0.0352224 -0.0142803 -0.0368862 -0.0352224 -0.0679 -0.00744088 -0.0352224 -0.0285285 -0.0582608 -0.0352224 -0.0679 -0.0582608 -0.0956881 1.65168e-08 -0.00501064 0.000212421 0.00286437 -0.00501064 -0.00377296 0.00286437 0.015115 0.000212421 0.00286437 0.000422237 0.0138501 0.00286437 0.015115 0.0138501 0.0380469 -0.00377296 0.00821022 0.015115 0.0362843 0.00821022 0.0295261 0.0362843 0.0595511 0.015115 0.0362843 0.0380469 0.0692864 0.0362843 0.0595511 0.0692864 0.097346 0.0295261 -0.000619512 0.0510082 0.0225056 -0.000619512 -0.0388796 0.0225056 -0.0129658 0.0510082 0.0225056 0.06298 0.046579 0.0225056 -0.0129658 0.046579 0.0174287 0.06298 0.046579 0.0620248 0.0714755 0.046579 0.0174287 0.0714755 0.0430188 1.65168e-08 -0.0127753 -0.00501064 -0.0200834 -0.0127753 -0.0404252 -0.0200834 -0.0528594 -0.00501064 -0.0200834 -0.00377296 -0.0231769 -0.0200834 -0.0528594 -0.0231769 -0.0601939 -0.00377296 -0.0231769 0.00821022 -0.0175048 -0.0231769 -0.0601939 -0.0175048 -0.0568806 0.00821022 -0.0175048 0.0295261 -0.000619512 -0.0175048 -0.0568806 -0.000619512 -0.0388796 0.0285285 -0.00137957 0.0074409 -0.0181037 -0.00137957 -0.0394485 -0.0181037 -0.0573289 0.0074409 -0.0181037 -0.00428758 -0.0235857 -0.0181037 -0.0573289 -0.0235857 -0.0605004 -0.00428758 -0.0235857 -0.0052683 -0.0202903 -0.0235857 -0.0605004 -0.0202903 -0.0530148 -0.0052683 -0.0202903 1.65168e-08 -0.0127753 -0.0202903 -0.0530148 -0.0127753 -0.0404252 0.0610068 0.0706185 0.0618458 0.0456916 0.0706185 0.0423461 0.0456916 0.0167558 0.0618458 0.0456916 0.049874 0.0216484 0.0456916 0.0167558 0.0216484 -0.0136061 0.049874 0.0216484 0.0285285 -0.00137957 0.0216484 -0.0136061 -0.00137957 -0.0394485 0.123645 0.114718 0.210805 0.19854 0.210805 0.19854 0.88328 0.842271 0.114774 0.123757 0.198583 0.210892 0.198583 0.210892 0.842271 0.88328 -0.0610068 -0.0536291 -0.0762808 -0.09611 -0.0762808 -0.09611 -0.0706185 -0.0893652 -0.0947271 -0.0560659 -0.0625171 -0.0490996 -0.0560659 -0.0211023 -0.0490996 -0.0421275 -0.0625171 -0.0490996 -0.0551931 -0.0566846 -0.0490996 -0.0421275 -0.0566846 -0.063338 -0.0211023 -0.0049376 -0.0421275 -0.0457101 -0.0049376 -0.0147751 -0.0457101 -0.0611633 -0.0421275 -0.0457101 -0.063338 -0.075651 -0.0457101 -0.0611633 -0.075651 -0.0931883 -0.0147751 -0.0504041 -0.0611633 -0.0867702 -0.0504041 -0.10397 -0.0867702 -0.117168 -0.0611633 -0.0867702 -0.0931883 -0.113428 -0.0867702 -0.117168 -0.113428 -0.133624 -0.127309 -0.0515639 -0.138973 -0.104182 -0.0515639 0.0502775 -0.104182 -0.0564354 -0.138973 -0.104182 -0.15547 -0.139111 -0.104182 -0.0564354 -0.139111 -0.116366 -0.190914 -0.207093 -0.26991 -0.297942 -0.207093 -0.218649 -0.297942 -0.312712 -0.297942 -0.312712 -0.996695 -0.9868 -0.212134 -0.200256 -0.312003 -0.292231 -0.200256 -0.189675 -0.292231 -0.279635 -0.312003 -0.292231 -0.88328 -0.842271 -0.292231 -0.279635 -0.842271 -0.795693 0.0502601 -0.0516044 -0.0564645 -0.104234 -0.0516044 -0.127377 -0.104234 -0.139052 -0.0564645 -0.104234 -0.116402 -0.13917 -0.104234 -0.139052 -0.13917 -0.155555 -0.189675 -0.200277 -0.279635 -0.29225 -0.200277 -0.212178 -0.29225 -0.312044 -0.279635 -0.29225 -0.795693 -0.842271 -0.29225 -0.312044 -0.842271 -0.88328 -0.218796 -0.20727 -0.312845 -0.298096 -0.20727 -0.191122 -0.298096 -0.270087 -0.312845 -0.298096 -0.9868 -0.996695 -0.10418 -0.0506716 -0.117392 -0.0870531 -0.0506716 -0.015175 -0.0870531 -0.0615184 -0.117392 -0.0870531 -0.133848 -0.113706 -0.0870531 -0.0615184 -0.113706 -0.0934571 -0.0215158 -0.05658 -0.042549 -0.049601 -0.05658 -0.095326 -0.049601 -0.0630842 -0.042549 -0.049601 -0.0637825 -0.0571573 -0.049601 -0.0630842 -0.0571573 -0.0557208 -0.0545232 -0.0620247 -0.0969905 -0.0772239 -0.0969905 -0.0772239 -0.0901884 -0.0714754 0.153504 0.10335 0.154331 0.132507 0.10335 0.0513113 0.132507 0.104402 0.154331 0.132507 0.159781 0.150102 0.132507 0.104402 0.150102 0.135248 0.0513113 0.0164024 0.104402 0.0770082 0.0164024 0.00709507 0.0770082 0.056505 0.104402 0.0770082 0.135248 0.117473 0.0770082 0.056505 0.117473 0.100167 0.200367 0.189754 0.282199 0.269434 0.282199 0.269434 0.88328 0.842271 0.0536291 0.0610068 0.0264244 0.0512868 0.0264244 0.0512868 0.0438441 0.0638996 0.184988 0.19151 0.266889 0.277185 0.266889 0.277185 0.842271 0.88328 -0.0545232 -0.027548 -0.0620247 -0.0524883 -0.027548 -0.0451828 -0.0524883 -0.065309 -0.181472 -0.261127 -0.188028 -0.27647 -0.188028 -0.27647 -0.194556 -0.284951 -0.27647 -0.842271 -0.284951 -0.88328 -0.00835584 -0.0177894 -0.0580097 -0.0786503 -0.0177894 -0.0528249 -0.0786503 -0.106181 -0.0580097 -0.0786503 -0.101973 -0.119422 -0.0786503 -0.106181 -0.119422 -0.137448 -0.0528249 -0.104994 -0.106181 -0.134398 -0.104994 -0.155263 -0.134398 -0.156302 -0.106181 -0.134398 -0.137448 -0.152122 -0.134398 -0.156302 -0.152122 -0.162157 -0.181472 -0.192849 -0.261127 -0.277336 -0.206713 -0.192997 -0.298474 -0.283006 -0.192997 -0.174519 -0.283006 -0.253893 -0.298474 -0.283006 -0.9868 -0.996695 -0.0916081 -0.0288296 -0.103782 -0.0659326 -0.0288296 0.0153001 -0.0659326 -0.0330095 -0.103782 -0.0659326 -0.119125 -0.0930539 -0.0659326 -0.0330095 -0.0930539 -0.0668286 0.0246685 0.000139748 6.40426e-06 0.000493075 0.000139748 -0.0234058 0.000493075 -0.00387981 6.40426e-06 0.000493075 -0.0257263 -0.013633 0.000493075 -0.00387981 -0.013633 -0.00661135 -0.0234058 -0.0280284 -0.00387981 -0.0065435 -0.0280284 -0.000656552 -0.0065435 -0.000715497 -0.00387981 -0.0065435 -0.00661135 -0.00323116 -0.0065435 -0.000715497 -0.00323116 -0.000788258 -0.000656552 0.0266705 -0.000715497 0.00506013 0.0266705 0.0220102 0.00506013 0.0023408 -0.000715497 0.00506013 -0.000788258 0.00159284 0.00506013 0.0023408 0.00159284 0.00492419 0.0220102 -0.00158595 0.0023408 -0.00209476 -0.00158595 -0.02619 -0.00209476 -0.00167901 0.0023408 -0.00209476 0.00492419 0.011878 -0.00209476 -0.00167901 0.011878 0.0239003 -0.0169779 0.0270934 0.0311846 0.0640352 0.0270934 0.0898214 0.0640352 0.101821 0.0311846 0.0640352 0.0648402 0.0909953 0.0640352 0.101821 0.0909953 0.116968 0.0620248 0.0545233 0.0524884 0.0275481 0.0524884 0.0275481 0.065309 0.0451828 0.194556 0.188028 0.28495 0.27647 0.188028 0.181472 0.27647 0.261127 0.28495 0.27647 0.88328 0.842271 0.0083559 0.0177894 0.0580097 0.0786504 0.0177894 0.0528249 0.0786504 0.106181 0.0580097 0.0786504 0.101973 0.119422 0.0786504 0.106181 0.119422 0.137448 0.0528249 0.104994 0.106181 0.134398 0.104994 0.155263 0.134398 0.156302 0.106181 0.134398 0.137448 0.152122 0.134398 0.156302 0.152122 0.162157 0.181472 0.192849 0.261127 0.277336 0.206713 0.192997 0.298474 0.283006 0.192997 0.174519 0.283006 0.253893 0.298474 0.283006 0.9868 0.996695 0.0916081 0.0288296 0.103782 0.0659326 0.0288296 -0.0153002 0.0659326 0.0330094 0.103782 0.0659326 0.119125 0.0930538 0.0659326 0.0330094 0.0930538 0.0668285 -0.0246685 -0.000139771 -6.43459e-06 -0.000493105 -0.000139771 0.0234058 -0.000493105 0.00387978 -6.43459e-06 -0.000493105 0.0257263 0.013633 -0.000493105 0.00387978 0.013633 0.00661132 0.0234058 0.0280284 0.00387978 0.00654347 0.0280284 0.000656535 0.00654347 0.000715473 0.00387978 0.00654347 0.00661132 0.00323113 0.00654347 0.000715473 0.00323113 0.000788226 0.000656535 -0.0266706 0.000715473 -0.00506016 -0.0266706 -0.0220102 -0.00506016 -0.00234083 0.000715473 -0.00506016 0.000788226 -0.00159288 -0.00506016 -0.00234083 -0.00159288 -0.00492423 -0.0220102 0.00158591 -0.00234083 0.00209472 0.00158591 0.02619 0.00209472 0.00167897 -0.00234083 0.00209472 -0.00492423 -0.011878 0.00209472 0.00167897 -0.011878 -0.0239004 0.0169779 -0.0270935 -0.0311847 -0.0640353 -0.0270935 -0.0898214 -0.0640353 -0.101821 -0.0311847 -0.0640353 -0.0648403 -0.0909953 -0.0640353 -0.101821 -0.0909953 -0.116969 -0.153504 -0.10335 -0.154331 -0.132507 -0.10335 -0.0513113 -0.132507 -0.104402 -0.154331 -0.132507 -0.159781 -0.150102 -0.132507 -0.104402 -0.150102 -0.135248 -0.0513113 -0.0164024 -0.104402 -0.0770082 -0.0164024 -0.00709506 -0.0770082 -0.056505 -0.104402 -0.0770082 -0.135248 -0.117473 -0.0770082 -0.056505 -0.117473 -0.100167 -0.200367 -0.189754 -0.282199 -0.269434 -0.282199 -0.269434 -0.88328 -0.842271 -0.0610068 -0.0512868 -0.0536291 -0.0264244 -0.0512868 -0.0638996 -0.0264244 -0.0438441 -0.191511 -0.277185 -0.184988 -0.266889 -0.277185 -0.88328 -0.266889 -0.842271 0.127309 0.0515639 0.138973 0.104182 0.0515639 -0.0502776 0.104182 0.0564352 0.138973 0.104182 0.15547 0.139111 0.104182 0.0564352 0.139111 0.116366 0.190914 0.207093 0.26991 0.297942 0.207093 0.218649 0.297942 0.312712 0.297942 0.312712 0.996695 0.9868 0.212134 0.200256 0.312003 0.292231 0.200256 0.189675 0.292231 0.279635 0.312003 0.292231 0.88328 0.842271 0.292231 0.279635 0.842271 0.795693 -0.0502603 0.0516042 0.0564643 0.104234 0.0516042 0.127377 0.104234 0.139052 0.0564643 0.104234 0.116402 0.13917 0.104234 0.139052 0.13917 0.155555 0.189675 0.200277 0.279635 0.29225 0.200277 0.212178 0.29225 0.312044 0.279635 0.29225 0.795693 0.842271 0.29225 0.312044 0.842271 0.88328 0.218796 0.20727 0.312845 0.298096 0.20727 0.191123 0.298096 0.270087 0.312845 0.298096 0.9868 0.996695 0.104182 0.0506792 0.117389 0.087045 0.0506792 0.0151141 0.087045 0.0614951 0.117389 0.087045 0.133847 0.113698 0.087045 0.0614951 0.113698 0.0935086 0.0151141 0.00533369 0.0614951 0.0460982 0.00533369 0.0215535 0.0460982 0.0425712 0.0614951 0.0460982 0.0935086 0.0760223 0.0460982 0.0425712 0.0760223 0.06376 0.0215535 0.0565823 0.0425712 0.0496018 0.0565823 0.0953265 0.0496018 0.0630846 0.0425712 0.0496018 0.06376 0.0571581 0.0496018 0.0630846 0.0571581 0.0557206 0.0620248 0.077224 0.0545233 0.0969906 0.077224 0.0714755 0.0969906 0.0901886 -0.114718 -0.19854 -0.123644 -0.210805 -0.19854 -0.842271 -0.210805 -0.88328 -0.123757 -0.210892 -0.114774 -0.198583 -0.210892 -0.88328 -0.198583 -0.842271 0.0536291 0.0961101 0.0610068 0.0762808 0.0961101 0.0893653 0.0762808 0.0706185 0.0947272 0.0560659 0.0625171 0.0490996 0.0560659 0.0211024 0.0490996 0.0421275 0.0625171 0.0490996 0.0551932 0.0566846 0.0490996 0.0421275 0.0566846 0.063338 0.0211024 0.00493764 0.0421275 0.0457102 0.00493764 0.0147751 0.0457102 0.0611634 0.0421275 0.0457102 0.063338 0.0756511 0.0457102 0.0611634 0.0756511 0.0931884 0.0147751 0.0504042 0.0611634 0.0867702 0.0504042 0.10397 0.0867702 0.117168 0.0611634 0.0867702 0.0931884 0.113428 0.0867702 0.117168 0.113428 0.133624 0.0568807 0.0601601 0.0859052 0.089798 0.0601601 0.0601939 0.089798 0.089699 0.0859052 0.089798 0.128602 0.132986 0.089798 0.089699 0.132986 0.133072 0.230672 0.228048 0.970381 0.947548 0.0601939 0.0573691 0.089699 0.0865074 0.0573691 0.0528595 0.0865074 0.0808096 0.089699 0.0865074 0.133072 0.129512 0.0865074 0.0808096 0.129512 0.123645 0.228048 0.221796 0.947548 0.91845 0.221796 0.210805 0.91845 0.88328 0.0530149 0.0576007 0.0809412 0.0867047 0.0576007 0.0605005 0.0867047 0.0899608 0.0809412 0.0867047 0.123757 0.129682 0.0867047 0.0899608 0.129682 0.133297 0.210892 0.221932 0.88328 0.91845 0.221932 0.228228 0.91845 0.947548 0.0605005 0.0605393 0.0899608 0.0901224 0.0605393 0.0573289 0.0901224 0.0862895 0.0899608 0.0901224 0.133297 0.133265 0.0901224 0.0862895 0.133265 0.128931 0.228228 0.230889 0.947548 0.970381 0.0136061 -0.00177452 0.0377087 0.0199595 -0.00177452 -0.0167557 0.0199595 0.00209036 0.0377087 0.0199595 0.0733604 0.051784 0.0199595 0.00209036 0.051784 0.02807 -0.0167557 -0.0304845 0.00209036 -0.0141928 -0.0304845 -0.042346 -0.0141928 -0.0283846 0.00209036 -0.0141928 0.02807 0.0050924 -0.0141928 -0.0283846 0.0050924 -0.0120657 0.103171 0.0668997 0.707107 0.55557 -0.121689 -0.120173 -0.0867356 -0.0769331 -0.120173 -0.0947271 -0.0769331 -0.0625171 -0.0867356 -0.0769331 -0.0610163 -0.0575058 -0.0769331 -0.0625171 -0.0575058 -0.0551931 -0.0551931 -0.0566846 -0.0591775 -0.0700016 -0.0566846 -0.063338 -0.0700016 -0.0842813 -0.0591775 -0.0700016 -0.0708644 -0.0867485 -0.0700016 -0.0842813 -0.0867485 -0.109015 -0.137882 -0.174452 -0.55557 -0.707107 -0.063338 -0.075651 -0.0842813 -0.101901 -0.075651 -0.0931883 -0.101901 -0.121315 -0.0842813 -0.101901 -0.109015 -0.133196 -0.101901 -0.121315 -0.133196 -0.156308 -0.174452 -0.210676 -0.707107 -0.83147 -0.10397 -0.154636 -0.117168 -0.144395 -0.154636 -0.179283 -0.144395 -0.159149 -0.117168 -0.144395 -0.133624 -0.151343 -0.144395 -0.159149 -0.151343 -0.161782 -0.179283 -0.17101 -0.159149 -0.157687 -0.17101 -0.127309 -0.157687 -0.138973 -0.159149 -0.157687 -0.161782 -0.163087 -0.157687 -0.138973 -0.163087 -0.15547 0.0502775 0.167106 -0.0564354 0.000935627 0.167106 0.294142 0.000935627 0.0658976 -0.0564354 0.000935627 -0.116366 -0.0888531 0.000935627 0.0658976 -0.0888531 -0.0601035 -0.161782 -0.163087 -0.180948 -0.184358 -0.163087 -0.15547 -0.184358 -0.18161 -0.180948 -0.184358 -0.218649 -0.222761 -0.184358 -0.18161 -0.222761 -0.223746 -0.218649 -0.222761 -0.312712 -0.325751 -0.222761 -0.223746 -0.325751 -0.331493 -0.312712 -0.325751 -0.9868 -0.970381 -0.325751 -0.331493 -0.970381 -0.947548 0.294142 0.167102 0.0658976 0.000924355 0.167102 0.0502601 0.000924355 -0.0564645 0.0658976 0.000924355 -0.0601035 -0.0888692 0.000924355 -0.0564645 -0.0888692 -0.116402 -0.127377 -0.171107 -0.139052 -0.157794 -0.171107 -0.179411 -0.157794 -0.159288 -0.139052 -0.157794 -0.155555 -0.163201 -0.157794 -0.159288 -0.163201 -0.161928 -0.179411 -0.154799 -0.159288 -0.144571 -0.154799 -0.10418 -0.144571 -0.117392 -0.159288 -0.144571 -0.161928 -0.151526 -0.144571 -0.117392 -0.151526 -0.133848 -0.155555 -0.163201 -0.1817 -0.184476 -0.163201 -0.161928 -0.184476 -0.181098 -0.1817 -0.184476 -0.223836 -0.22288 -0.184476 -0.181098 -0.22288 -0.218796 -0.223836 -0.22288 -0.331578 -0.32586 -0.22288 -0.218796 -0.32586 -0.312845 -0.331578 -0.32586 -0.947548 -0.970381 -0.32586 -0.312845 -0.970381 -0.9868 -0.015175 -0.00525505 -0.0615184 -0.04609 -0.00525505 -0.0215158 -0.04609 -0.042549 -0.0615184 -0.04609 -0.0934571 -0.0760258 -0.04609 -0.042549 -0.0760258 -0.0637825 -0.095326 -0.120863 -0.0630842 -0.0775739 -0.120863 -0.122469 -0.0775739 -0.087457 -0.0630842 -0.0775739 -0.0557208 -0.0580928 -0.0775739 -0.087457 -0.0580928 -0.0616653 -0.0934571 -0.0760258 -0.121615 -0.102243 -0.0760258 -0.0637825 -0.102243 -0.0846746 -0.121615 -0.102243 -0.156579 -0.13351 -0.102243 -0.0846746 -0.13351 -0.109366 -0.21092 -0.174724 -0.83147 -0.707107 -0.0637825 -0.0571573 -0.0846746 -0.0704418 -0.0571573 -0.0557208 -0.0704418 -0.0596588 -0.0846746 -0.0704418 -0.109366 -0.0871398 -0.0704418 -0.0596588 -0.0871398 -0.0712994 -0.174724 -0.138184 -0.707107 -0.55557 -0.0430189 -0.0311608 -0.028971 -0.0147803 -0.0311608 -0.0174288 -0.0147803 0.00150771 -0.028971 -0.0147803 -0.0125776 0.0045829 -0.0147803 0.00150771 0.0045829 0.0275681 0.0665014 0.102779 0.55557 0.707107 -0.0174288 -0.00243595 0.00150771 0.0193887 -0.00243595 0.0129657 0.0193887 0.0371573 0.00150771 0.0193887 0.0275681 0.0512938 0.0193887 0.0371573 0.0512938 0.0728871 0.0898214 0.149231 0.101821 0.136114 0.149231 0.182235 0.136114 0.157774 0.101821 0.136114 0.116968 0.140069 0.136114 0.157774 0.140069 0.155617 0.182235 0.18344 0.157774 0.163768 0.18344 0.153504 0.163768 0.154331 0.157774 0.163768 0.155617 0.162015 0.163768 0.154331 0.162015 0.159781 0.155617 0.162015 0.170192 0.176586 0.162015 0.159781 0.176586 0.176741 0.170192 0.176586 0.204115 0.210229 0.176586 0.176741 0.210229 0.210973 0.300894 0.299564 0.970381 0.947548 0.210973 0.207224 0.299564 0.293528 0.207224 0.200367 0.293528 0.282199 0.299564 0.293528 0.947548 0.91845 0.293528 0.282199 0.91845 0.88328 0.19151 0.195145 0.277185 0.286409 0.195145 0.196494 0.286409 0.290808 0.277185 0.286409 0.88328 0.91845 0.286409 0.290808 0.91845 0.947548 0.121391 0.120389 0.152734 0.151038 0.120389 0.115992 0.151038 0.145356 0.152734 0.151038 0.196494 0.194347 0.151038 0.145356 0.194347 0.187868 0.290808 0.290975 0.947548 0.970381 0.0679 0.0519773 0.0903415 0.0713549 0.0519773 0.0368862 0.0713549 0.0524688 0.0903415 0.0713549 0.124167 0.100828 0.0713549 0.0524688 0.100828 0.0755916 0.180686 0.144437 0.83147 0.707107 0.0368862 0.023571 0.0524688 0.035347 0.023571 0.0128628 0.035347 0.0204587 0.0524688 0.035347 0.0755916 0.0513274 0.035347 0.0204587 0.0513274 0.0328767 0.144437 0.107095 0.707107 0.55557 -0.0692864 -0.0918995 -0.0532431 -0.0727792 -0.0918995 -0.125896 -0.0727792 -0.102392 -0.0532431 -0.0727792 -0.0380469 -0.0537847 -0.0727792 -0.102392 -0.0537847 -0.0770346 -0.182393 -0.83147 -0.145947 -0.707107 -0.0380469 -0.0537847 -0.0246411 -0.0365752 -0.0537847 -0.0770346 -0.0365752 -0.0526909 -0.0246411 -0.0365752 -0.0138501 -0.0216167 -0.0365752 -0.0526909 -0.0216167 -0.0341731 -0.145947 -0.707107 -0.108408 -0.55557 -0.194556 -0.284951 -0.198414 -0.292802 -0.284951 -0.88328 -0.292802 -0.91845 -0.198414 -0.292802 -0.199696 -0.295732 -0.292802 -0.91845 -0.295732 -0.947548 -0.123428 -0.155205 -0.122395 -0.153447 -0.155205 -0.199696 -0.153447 -0.197347 -0.122395 -0.153447 -0.117925 -0.147624 -0.153447 -0.197347 -0