# vtk DataFile Version 3.0
#This file was generated by the deal.II library on 2015/4/21 at 16:36: 7
ASCII
DATASET UNSTRUCTURED_GRID

POINTS 2048 double
1 0 0
1 0.25 0
0.8125 0 0
0.807924 0.198549 0
1 0.25 0
1 0.5 0
0.807924 0.198549 0
0.803347 0.397097 0
0.8125 0 0
0.807924 0.198549 0
0.625 0 0
0.615847 0.147097 0
0.807924 0.198549 0
0.803347 0.397097 0
0.615847 0.147097 0
0.606694 0.294194 0
1 0.5 0
1 0.75 0
0.803347 0.397097 0
0.798771 0.595646 0
1 0.75 0
1 1 0
0.798771 0.595646 0
0.794194 0.794194 0
0.803347 0.397097 0
0.798771 0.595646 0
0.606694 0.294194 0
0.597541 0.441291 0
0.798771 0.595646 0
0.794194 0.794194 0
0.597541 0.441291 0
0.588388 0.588388 0
0.625 0 0
0.615847 0.147097 0
0.4375 0 0
0.423771 0.0956456 0
0.615847 0.147097 0
0.606694 0.294194 0
0.423771 0.0956456 0
0.410041 0.191291 0
0.4375 0 0
0.423771 0.0956456 0
0.25 0 0
0.231694 0.0441942 0
0.423771 0.0956456 0
0.410041 0.191291 0
0.231694 0.0441942 0
0.213388 0.0883883 0
0.606694 0.294194 0
0.597541 0.441291 0
0.410041 0.191291 0
0.396312 0.286937 0
0.597541 0.441291 0
0.588388 0.588388 0
0.396312 0.286937 0
0.382583 0.382583 0
0.410041 0.191291 0
0.396312 0.286937 0
0.213388 0.0883883 0
0.195083 0.132583 0
0.396312 0.286937 0
0.382583 0.382583 0
0.195083 0.132583 0
0.176777 0.176777 0
1 1 0
0.75 1 0
0.794194 0.794194 0
0.595646 0.798771 0
0.75 1 0
0.5 1 0
0.595646 0.798771 0
0.397097 0.803347 0
0.794194 0.794194 0
0.595646 0.798771 0
0.588388 0.588388 0
0.441291 0.597541 0
0.595646 0.798771 0
0.397097 0.803347 0
0.441291 0.597541 0
0.294194 0.606694 0
0.5 1 0
0.25 1 0
0.397097 0.803347 0
0.198549 0.807924 0
0.25 1 0
6.12323e-17 1 0
0.198549 0.807924 0
4.97513e-17 0.8125 0
0.397097 0.803347 0
0.198549 0.807924 0
0.294194 0.606694 0
0.147097 0.615847 0
0.198549 0.807924 0
4.97513e-17 0.8125 0
0.147097 0.615847 0
3.82702e-17 0.625 0
0.588388 0.588388 0
0.441291 0.597541 0
0.382583 0.382583 0
0.286937 0.396312 0
0.441291 0.597541 0
0.294194 0.606694 0
0.286937 0.396312 0
0.191291 0.410041 0
0.382583 0.382583 0
0.286937 0.396312 0
0.176777 0.176777 0
0.132583 0.195083 0
0.286937 0.396312 0
0.191291 0.410041 0
0.132583 0.195083 0
0.0883883 0.213388 0
0.294194 0.606694 0
0.147097 0.615847 0
0.191291 0.410041 0
0.0956456 0.423771 0
0.147097 0.615847 0
3.82702e-17 0.625 0
0.0956456 0.423771 0
2.67891e-17 0.4375 0
0.191291 0.410041 0
0.0956456 0.423771 0
0.0883883 0.213388 0
0.0441942 0.231694 0
0.0956456 0.423771 0
2.67891e-17 0.4375 0
0.0441942 0.231694 0
1.53081e-17 0.25 0
6.12323e-17 1 0
-0.25 1 0
4.97513e-17 0.8125 0
-0.198549 0.807924 0
-0.25 1 0
-0.5 1 0
-0.198549 0.807924 0
-0.397097 0.803347 0
4.97513e-17 0.8125 0
-0.198549 0.807924 0
3.82702e-17 0.625 0
-0.147097 0.615847 0
-0.198549 0.807924 0
-0.397097 0.803347 0
-0.147097 0.615847 0
-0.294194 0.606694 0
-0.5 1 0
-0.75 1 0
-0.397097 0.803347 0
-0.595646 0.798771 0
-0.75 1 0
-1 1 0
-0.595646 0.798771 0
-0.794194 0.794194 0
-0.397097 0.803347 0
-0.595646 0.798771 0
-0.294194 0.606694 0
-0.441291 0.597541 0
-0.595646 0.798771 0
-0.794194 0.794194 0
-0.441291 0.597541 0
-0.588388 0.588388 0
3.82702e-17 0.625 0
-0.147097 0.615847 0
2.67891e-17 0.4375 0
-0.0956456 0.423771 0
-0.147097 0.615847 0
-0.294194 0.606694 0
-0.0956456 0.423771 0
-0.191291 0.410041 0
2.67891e-17 0.4375 0
-0.0956456 0.423771 0
1.53081e-17 0.25 0
-0.0441942 0.231694 0
-0.0956456 0.423771 0
-0.191291 0.410041 0
-0.0441942 0.231694 0
-0.0883883 0.213388 0
-0.294194 0.606694 0
-0.441291 0.597541 0
-0.191291 0.410041 0
-0.286937 0.396312 0
-0.441291 0.597541 0
-0.588388 0.588388 0
-0.286937 0.396312 0
-0.382583 0.382583 0
-0.191291 0.410041 0
-0.286937 0.396312 0
-0.0883883 0.213388 0
-0.132583 0.195083 0
-0.286937 0.396312 0
-0.382583 0.382583 0
-0.132583 0.195083 0
-0.176777 0.176777 0
-1 1 0
-1 0.75 0
-0.794194 0.794194 0
-0.798771 0.595646 0
-1 0.75 0
-1 0.5 0
-0.798771 0.595646 0
-0.803347 0.397097 0
-0.794194 0.794194 0
-0.798771 0.595646 0
-0.588388 0.588388 0
-0.597541 0.441291 0
-0.798771 0.595646 0
-0.803347 0.397097 0
-0.597541 0.441291 0
-0.606694 0.294194 0
-1 0.5 0
-1 0.25 0
-0.803347 0.397097 0
-0.807924 0.198549 0
-1 0.25 0
-1 1.22465e-16 0
-0.807924 0.198549 0
-0.8125 9.95026e-17 0
-0.803347 0.397097 0
-0.807924 0.198549 0
-0.606694 0.294194 0
-0.615847 0.147097 0
-0.807924 0.198549 0
-0.8125 9.95026e-17 0
-0.615847 0.147097 0
-0.625 7.65404e-17 0
-0.588388 0.588388 0
-0.597541 0.441291 0
-0.382583 0.382583 0
-0.396312 0.286937 0
-0.597541 0.441291 0
-0.606694 0.294194 0
-0.396312 0.286937 0
-0.410041 0.191291 0
-0.382583 0.382583 0
-0.396312 0.286937 0
-0.176777 0.176777 0
-0.195083 0.132583 0
-0.396312 0.286937 0
-0.410041 0.191291 0
-0.195083 0.132583 0
-0.213388 0.0883883 0
-0.606694 0.294194 0
-0.615847 0.147097 0
-0.410041 0.191291 0
-0.423771 0.0956456 0
-0.615847 0.147097 0
-0.625 7.65404e-17 0
-0.423771 0.0956456 0
-0.4375 5.35783e-17 0
-0.410041 0.191291 0
-0.423771 0.0956456 0
-0.213388 0.0883883 0
-0.231694 0.0441942 0
-0.423771 0.0956456 0
-0.4375 5.35783e-17 0
-0.231694 0.0441942 0
-0.25 3.06162e-17 0
-1 1.22465e-16 0
-1 -0.25 0
-0.8125 9.95026e-17 0
-0.807924 -0.198549 0
-1 -0.25 0
-1 -0.5 0
-0.807924 -0.198549 0
-0.803347 -0.397097 0
-0.8125 9.95026e-17 0
-0.807924 -0.198549 0
-0.625 7.65404e-17 0
-0.615847 -0.147097 0
-0.807924 -0.198549 0
-0.803347 -0.397097 0
-0.615847 -0.147097 0
-0.606694 -0.294194 0
-1 -0.5 0
-1 -0.75 0
-0.803347 -0.397097 0
-0.798771 -0.595646 0
-1 -0.75 0
-1 -1 0
-0.798771 -0.595646 0
-0.794194 -0.794194 0
-0.803347 -0.397097 0
-0.798771 -0.595646 0
-0.606694 -0.294194 0
-0.597541 -0.441291 0
-0.798771 -0.595646 0
-0.794194 -0.794194 0
-0.597541 -0.441291 0
-0.588388 -0.588388 0
-0.625 7.65404e-17 0
-0.615847 -0.147097 0
-0.4375 5.35783e-17 0
-0.423771 -0.0956456 0
-0.615847 -0.147097 0
-0.606694 -0.294194 0
-0.423771 -0.0956456 0
-0.410041 -0.191291 0
-0.4375 5.35783e-17 0
-0.423771 -0.0956456 0
-0.25 3.06162e-17 0
-0.231694 -0.0441942 0
-0.423771 -0.0956456 0
-0.410041 -0.191291 0
-0.231694 -0.0441942 0
-0.213388 -0.0883883 0
-0.606694 -0.294194 0
-0.597541 -0.441291 0
-0.410041 -0.191291 0
-0.396312 -0.286937 0
-0.597541 -0.441291 0
-0.588388 -0.588388 0
-0.396312 -0.286937 0
-0.382583 -0.382583 0
-0.410041 -0.191291 0
-0.396312 -0.286937 0
-0.213388 -0.0883883 0
-0.195083 -0.132583 0
-0.396312 -0.286937 0
-0.382583 -0.382583 0
-0.195083 -0.132583 0
-0.176777 -0.176777 0
-1 -1 0
-0.75 -1 0
-0.794194 -0.794194 0
-0.595646 -0.798771 0
-0.75 -1 0
-0.5 -1 0
-0.595646 -0.798771 0
-0.397097 -0.803347 0
-0.794194 -0.794194 0
-0.595646 -0.798771 0
-0.588388 -0.588388 0
-0.441291 -0.597541 0
-0.595646 -0.798771 0
-0.397097 -0.803347 0
-0.441291 -0.597541 0
-0.294194 -0.606694 0
-0.5 -1 0
-0.25 -1 0
-0.397097 -0.803347 0
-0.198549 -0.807924 0
-0.25 -1 0
-1.83697e-16 -1 0
-0.198549 -0.807924 0
-1.49254e-16 -0.8125 0
-0.397097 -0.803347 0
-0.198549 -0.807924 0
-0.294194 -0.606694 0
-0.147097 -0.615847 0
-0.198549 -0.807924 0
-1.49254e-16 -0.8125 0
-0.147097 -0.615847 0
-1.14811e-16 -0.625 0
-0.588388 -0.588388 0
-0.441291 -0.597541 0
-0.382583 -0.382583 0
-0.286937 -0.396312 0
-0.441291 -0.597541 0
-0.294194 -0.606694 0
-0.286937 -0.396312 0
-0.191291 -0.410041 0
-0.382583 -0.382583 0
-0.286937 -0.396312 0
-0.176777 -0.176777 0
-0.132583 -0.195083 0
-0.286937 -0.396312 0
-0.191291 -0.410041 0
-0.132583 -0.195083 0
-0.0883883 -0.213388 0
-0.294194 -0.606694 0
-0.147097 -0.615847 0
-0.191291 -0.410041 0
-0.0956456 -0.423771 0
-0.147097 -0.615847 0
-1.14811e-16 -0.625 0
-0.0956456 -0.423771 0
-8.03674e-17 -0.4375 0
-0.191291 -0.410041 0
-0.0956456 -0.423771 0
-0.0883883 -0.213388 0
-0.0441942 -0.231694 0
-0.0956456 -0.423771 0
-8.03674e-17 -0.4375 0
-0.0441942 -0.231694 0
-4.59243e-17 -0.25 0
-1.83697e-16 -1 0
0.25 -1 0
-1.49254e-16 -0.8125 0
0.198549 -0.807924 0
0.25 -1 0
0.5 -1 0
0.198549 -0.807924 0
0.397097 -0.803347 0
-1.49254e-16 -0.8125 0
0.198549 -0.807924 0
-1.14811e-16 -0.625 0
0.147097 -0.615847 0
0.198549 -0.807924 0
0.397097 -0.803347 0
0.147097 -0.615847 0
0.294194 -0.606694 0
0.5 -1 0
0.75 -1 0
0.397097 -0.803347 0
0.595646 -0.798771 0
0.75 -1 0
1 -1 0
0.595646 -0.798771 0
0.794194 -0.794194 0
0.397097 -0.803347 0
0.595646 -0.798771 0
0.294194 -0.606694 0
0.441291 -0.597541 0
0.595646 -0.798771 0
0.794194 -0.794194 0
0.441291 -0.597541 0
0.588388 -0.588388 0
-1.14811e-16 -0.625 0
0.147097 -0.615847 0
-8.03674e-17 -0.4375 0
0.0956456 -0.423771 0
0.147097 -0.615847 0
0.294194 -0.606694 0
0.0956456 -0.423771 0
0.191291 -0.410041 0
-8.03674e-17 -0.4375 0
0.0956456 -0.423771 0
-4.59243e-17 -0.25 0
0.0441942 -0.231694 0
0.0956456 -0.423771 0
0.191291 -0.410041 0
0.0441942 -0.231694 0
0.0883883 -0.213388 0
0.294194 -0.606694 0
0.441291 -0.597541 0
0.191291 -0.410041 0
0.286937 -0.396312 0
0.441291 -0.597541 0
0.588388 -0.588388 0
0.286937 -0.396312 0
0.382583 -0.382583 0
0.191291 -0.410041 0
0.286937 -0.396312 0
0.0883883 -0.213388 0
0.132583 -0.195083 0
0.286937 -0.396312 0
0.382583 -0.382583 0
0.132583 -0.195083 0
0.176777 -0.176777 0
1 -1 0
1 -0.75 0
0.794194 -0.794194 0
0.798771 -0.595646 0
1 -0.75 0
1 -0.5 0
0.798771 -0.595646 0
0.803347 -0.397097 0
0.794194 -0.794194 0
0.798771 -0.595646 0
0.588388 -0.588388 0
0.597541 -0.441291 0
0.798771 -0.595646 0
0.803347 -0.397097 0
0.597541 -0.441291 0
0.606694 -0.294194 0
1 -0.5 0
1 -0.25 0
0.803347 -0.397097 0
0.807924 -0.198549 0
1 -0.25 0
1 0 0
0.807924 -0.198549 0
0.8125 0 0
0.803347 -0.397097 0
0.807924 -0.198549 0
0.606694 -0.294194 0
0.615847 -0.147097 0
0.807924 -0.198549 0
0.8125 0 0
0.615847 -0.147097 0
0.625 0 0
0.588388 -0.588388 0
0.597541 -0.441291 0
0.382583 -0.382583 0
0.396312 -0.286937 0
0.597541 -0.441291 0
0.606694 -0.294194 0
0.396312 -0.286937 0
0.410041 -0.191291 0
0.382583 -0.382583 0
0.396312 -0.286937 0
0.176777 -0.176777 0
0.195083 -0.132583 0
0.396312 -0.286937 0
0.410041 -0.191291 0
0.195083 -0.132583 0
0.213388 -0.0883883 0
0.606694 -0.294194 0
0.615847 -0.147097 0
0.410041 -0.191291 0
0.423771 -0.0956456 0
0.615847 -0.147097 0
0.625 0 0
0.423771 -0.0956456 0
0.4375 0 0
0.410041 -0.191291 0
[...]
POINT_DATA 2048
SCALARS solution double 1
LOOKUP_TABLE default
-0.0130209 -0.00282055 0.00161986 0.00976194 -0.00282055 0.00270585 0.00976194 0.0124909 0.00161986 0.00976194 0.0196557 0.0286572 0.00976194 0.0124909 0.0286572 0.0307782 0.00270585 0.00288992 0.0124909 0.010779 0.00288992 1.61912e-07 0.010779 0.00686631 0.0124909 0.010779 0.0307782 0.0273665 0.010779 0.00686631 0.0273665 0.0211469 0.0196557 0.0286572 0.0484854 0.06111 0.0286572 0.0307782 0.06111 0.0658697 0.0484854 0.06111 1 0.9868 0.06111 0.0658697 0.9868 0.947548 0.0307782 0.0273665 0.0658697 0.0617316 0.0273665 0.0211469 0.0617316 0.0555401 0.0658697 0.0617316 0.947548 0.88328 0.0617316 0.0555401 0.88328 0.795693 1.61912e-07 0.00288988 0.00686631 0.0107789 0.00288988 0.00270576 0.0107789 0.0124908 0.00686631 0.0107789 0.0211469 0.0273665 0.0107789 0.0124908 0.0273665 0.0307781 0.00270576 -0.0028207 0.0124908 0.00976179 -0.0028207 -0.0130211 0.00976179 0.00161967 0.0124908 0.00976179 0.0307781 0.028657 0.00976179 0.00161967 0.028657 0.0196555 0.0211469 0.0273665 0.0555401 0.0617316 0.0273665 0.0307781 0.0617316 0.0658695 0.0555401 0.0617316 0.795693 0.88328 0.0617316 0.0658695 0.88328 0.947548 0.0307781 0.028657 0.0658695 0.0611098 0.028657 0.0196555 0.0611098 0.0484852 0.0658695 0.0611098 0.947548 0.9868 0.0611098 0.0484852 0.9868 1 -0.0130211 -0.0232862 0.00161967 -0.00910293 -0.0232862 -0.0286729 -0.00910293 -0.0196495 0.00161967 -0.00910293 0.0196555 0.00731865 -0.00910293 -0.0196495 0.00731865 -0.00600954 -0.0286729 -0.0266369 -0.0196495 -0.0296034 -0.0266369 0 -0.0296034 -0.0488116 -0.0196495 -0.0296034 -0.00600954 -0.0169709 -0.0296034 -0.0488116 -0.0169709 -0.0239984 0.0196555 0.00731865 0.0484852 0.0307446 0.00731865 -0.00600954 0.0307446 0.0122276 0.0484852 0.0307446 1 0.92388 0.0307446 0.0122276 0.92388 0.707107 -0.00600954 -0.0169709 0.0122276 -0.00339246 -0.0169709 -0.0239984 -0.00339246 -0.0167157 0.0122276 -0.00339246 0.707107 0.382683 -0.00339246 -0.0167157 0.382683 1.74393e-16 0 -1 -0.0488116 -0.0318845 -1 -1.01064e-15 -0.0318845 -0.00829931 -0.0488116 -0.0318845 -0.0239984 -0.0222475 -0.0318845 -0.00829931 -0.0222475 -0.0272675 -1.01064e-15 1 -0.00829931 -0.0134829 1 1.13311e-15 -0.0134829 -0.0435409 -0.00829931 -0.0134829 -0.0272675 -0.0401354 -0.0134829 -0.0435409 -0.0401354 -0.0562988 -0.0239984 -0.0222475 -0.0167157 -0.0300967 -0.0222475 -0.0272675 -0.0300967 -0.0450085 -0.0167157 -0.0300967 1.74393e-16 -0.382683 -0.0300967 -0.0450085 -0.382683 -0.707107 -0.0272675 -0.0401354 -0.0450085 -0.0636054 -0.0401354 -0.0562988 -0.0636054 -0.0818684 -0.0450085 -0.0636054 -0.707107 -0.92388 -0.0636054 -0.0818684 -0.92388 -1 1.13311e-15 -1 -0.0435409 -0.0683255 -1 -3.67394e-16 -0.0683255 -0.0476605 -0.0435409 -0.0683255 -0.0562988 -0.0669454 -0.0683255 -0.0476605 -0.0669454 -0.0628235 -3.67394e-16 1 -0.0476605 0.021446 1 4.89859e-16 0.021446 0.128915 -0.0476605 0.021446 -0.0628235 -0.0445033 0.021446 0.128915 -0.0445033 -0.018764 -0.0562988 -0.0669454 -0.0818684 -0.0940653 -0.0669454 -0.0628235 -0.0940653 -0.0972733 -0.0818684 -0.0940653 -1 -0.9868 -0.0940653 -0.0972733 -0.9868 -0.947548 -0.0628235 -0.0445033 -0.0972733 -0.0909447 -0.0445033 -0.018764 -0.0909447 -0.0824095 -0.0972733 -0.0909447 -0.947548 -0.88328 -0.0909447 -0.0824095 -0.88328 -0.795693 4.89859e-16 1 0.128915 0.0214461 1 -3.67394e-16 0.0214461 -0.0476604 0.128915 0.0214461 -0.018764 -0.0445033 0.0214461 -0.0476604 -0.0445033 -0.0628234 -3.67394e-16 -1 -0.0476604 -0.0683255 -1 -1.53143e-15 -0.0683255 -0.0435408 -0.0476604 -0.0683255 -0.0628234 -0.0669454 -0.0683255 -0.0435408 -0.0669454 -0.0562986 -0.018764 -0.0445033 -0.0824095 -0.0909447 -0.0445033 -0.0628234 -0.0909447 -0.0972732 -0.0824095 -0.0909447 -0.795693 -0.88328 -0.0909447 -0.0972732 -0.88328 -0.947548 -0.0628234 -0.0669454 -0.0972732 -0.0940652 -0.0669454 -0.0562986 -0.0940652 -0.0818683 -0.0972732 -0.0940652 -0.947548 -0.9868 -0.0940652 -0.0818683 -0.9868 -1 -1.53143e-15 1 -0.0435408 -0.0134828 1 7.65714e-16 -0.0134828 -0.00829913 -0.0435408 -0.0134828 -0.0562986 -0.0401353 -0.0134828 -0.00829913 -0.0401353 -0.0272674 7.65714e-16 -1 -0.00829913 -0.0318843 -1 0 -0.0318843 -0.0488114 -0.00829913 -0.0318843 -0.0272674 -0.0222473 -0.0318843 -0.0488114 -0.0222473 -0.0239982 -0.0562986 -0.0401353 -0.0818683 -0.0636052 -0.0401353 -0.0272674 -0.0636052 -0.0450083 -0.0818683 -0.0636052 -1 -0.92388 -0.0636052 -0.0450083 -0.92388 -0.707107 -0.0272674 -0.0222473 -0.0450083 -0.0300965 -0.0222473 -0.0239982 -0.0300965 -0.0167155 -0.0450083 -0.0300965 -0.707107 -0.382683 -0.0300965 -0.0167155 -0.382683 -5.2318e-16 0 -0.0266367 -0.0488114 -0.0296032 -0.0266367 -0.0286727 -0.0296032 -0.0196492 -0.0488114 -0.0296032 -0.0239982 -0.0169707 -0.0296032 -0.0196492 -0.0169707 -0.00600931 -0.0286727 -0.0232859 -0.0196492 -0.00910271 -0.0232859 -0.0130209 -0.00910271 0.00161986 -0.0196492 -0.00910271 -0.00600931 0.00731887 -0.00910271 0.00161986 0.00731887 0.0196557 -0.0239982 -0.0169707 -0.0167155 -0.00339224 -0.0169707 -0.00600931 -0.00339224 0.0122278 -0.0167155 -0.00339224 -5.2318e-16 0.382683 -0.00339224 0.0122278 0.382683 0.707107 -0.00600931 0.00731887 0.0122278 0.0307448 0.00731887 0.0196557 0.0307448 0.0484854 0.0122278 0.0307448 0.707107 0.92388 0.0307448 0.0484854 0.92388 1 -7.34788e-16 1 0.044959 0.0805789 1 8.57253e-16 0.0805789 0.0743679 0.044959 0.0805789 0.0570906 0.0746531 0.0805789 0.0743679 0.0746531 0.0777251 8.57253e-16 -1 0.0743679 0.038765 -1 -9.79717e-16 0.038765 0.0103474 0.0743679 0.038765 0.0777251 0.0680676 0.038765 0.0103474 0.0680676 0.0527065 0.0570906 0.0746531 0.0816368 0.0979123 0.0746531 0.0777251 0.0979123 0.103975 0.0816368 0.0979123 1 0.9868 0.0979123 0.103975 0.9868 0.947548 0.0777251 0.0680676 0.103975 0.0992321 0.0680676 0.0527065 0.0992321 0.0906553 0.103975 0.0992321 0.947548 0.88328 0.0992321 0.0906553 0.88328 0.795693 -9.79717e-16 0.0266368 0.0103474 0.0331525 0.0266368 0.0286729 0.0331525 0.0390022 0.0103474 0.0331525 0.0527065 0.0579464 0.0331525 0.0390022 0.0579464 0.0599492 0.0286729 0.0232862 0.0390022 0.0364707 0.0232862 0.0130212 0.0364707 0.027609 0.0390022 0.0364707 0.0599492 0.0561139 0.0364707 0.027609 0.0561139 0.0454146 0.0527065 0.0579464 0.0906553 0.0940773 0.0579464 0.0599492 0.0940773 0.0955593 0.0906553 0.0940773 0.795693 0.88328 0.0940773 0.0955593 0.88328 0.947548 0.0599492 0.0561139 0.0955593 0.0885434 0.0561139 0.0454146 0.0885434 0.0737081 0.0955593 0.0885434 0.947548 0.9868 0.0885434 0.0737081 0.9868 1 0.0130212 0.00282088 0.027609 0.0163486 0.00282088 -0.0027055 0.0163486 0.0064398 0.027609 0.0163486 0.0454146 0.0315644 0.0163486 0.0064398 0.0315644 0.0171792 -0.0027055 -0.00288957 0.0064398 0.000901581 -0.00288957 1.61912e-07 0.000901581 1.67106e-07 0.0064398 0.000901581 0.0171792 0.00602501 0.000901581 1.67106e-07 0.00602501 1.54315e-07 0.0454146 0.0315644 0.0737081 0.0537426 0.0315644 0.0171792 0.0537426 0.0331636 0.0737081 0.0537426 1 0.92388 0.0537426 0.0331636 0.92388 0.707107 0.0171792 0.00602501 0.0331636 0.0155903 0.00602501 1.54315e-07 0.0155903 1.06435e-07 0.0331636 0.0155903 0.707107 0.382683 0.0155903 1.06435e-07 0.382683 -4.89859e-16 -0.0130209 -0.0276087 -0.00282055 -0.0163483 -0.0276087 -0.0454143 -0.0163483 -0.0315642 -0.00282055 -0.0163483 0.00270585 -0.00643949 -0.0163483 -0.0315642 -0.00643949 -0.0171789 -0.0454143 -0.0737079 -0.0315642 -0.0537424 -0.0737079 -1 -0.0537424 -0.92388 -0.0315642 -0.0537424 -0.0171789 -0.0331634 -0.0537424 -0.92388 -0.0331634 -0.707107 0.00270585 -0.00643949 0.00288992 -0.000901253 -0.00643949 -0.0171789 -0.000901253 -0.00602472 0.00288992 -0.000901253 1.61912e-07 1.67106e-07 -0.000901253 -0.00602472 1.67106e-07 1.54315e-07 -0.0171789 -0.0331634 -0.00602472 -0.0155901 -0.0331634 -0.707107 -0.0155901 -0.382683 -0.00602472 -0.0155901 1.54315e-07 1.06435e-07 -0.0155901 -0.382683 1.06435e-07 -4.89859e-16 0 -0.0103472 -0.0266367 -0.0331524 -0.0103472 -0.0527063 -0.0331524 -0.0579462 -0.0266367 -0.0331524 -0.0286727 -0.039002 -0.0331524 -0.0579462 -0.039002 -0.0599491 -0.0527063 -0.0906552 -0.0579462 -0.0940772 -0.0906552 -0.795693 -0.0940772 -0.88328 -0.0579462 -0.0940772 -0.0599491 -0.0955592 -0.0940772 -0.88328 -0.0955592 -0.947548 -0.0286727 -0.039002 -0.0232859 -0.0364705 -0.039002 -0.0599491 -0.0364705 -0.0561137 -0.0232859 -0.0364705 -0.0130209 -0.0276087 -0.0364705 -0.0561137 -0.0276087 -0.0454143 -0.0599491 -0.0955592 -0.0561137 -0.0885432 -0.0955592 -0.947548 -0.0885432 -0.9868 -0.0561137 -0.0885432 -0.0454143 -0.0737079 -0.0885432 -0.9868 -0.0737079 -1 0 1 -0.0103472 -0.0387649 1 1.22465e-16 -0.0387649 -0.0743678 -0.0103472 -0.0387649 -0.0527063 -0.0680675 -0.0387649 -0.0743678 -0.0680675 -0.0777251 1.22465e-16 -1 -0.0743678 -0.0805789 -1 -2.02129e-15 -0.0805789 -0.0449591 -0.0743678 -0.0805789 -0.0777251 -0.0746531 -0.0805789 -0.0449591 -0.0746531 -0.0570907 -0.0527063 -0.0680675 -0.0906552 -0.099232 -0.0680675 -0.0777251 -0.099232 -0.103975 -0.0906552 -0.099232 -0.795693 -0.88328 -0.099232 -0.103975 -0.88328 -0.947548 -0.0777251 -0.0746531 -0.103975 -0.0979123 -0.0746531 -0.0570907 -0.0979123 -0.0816369 -0.103975 -0.0979123 -0.947548 -0.9868 -0.0979123 -0.0816369 -0.9868 -1 -2.02129e-15 1 -0.0449591 -0.00584984 1 3.67394e-16 -0.00584984 0.00781448 -0.0449591 -0.00584984 -0.0570907 -0.0341037 -0.00584984 0.00781448 -0.0341037 -0.0148236 3.67394e-16 -1 0.00781448 -0.00345419 -1 -4.89859e-16 -0.00345419 -9.71592e-08 0.00781448 -0.00345419 -0.0148236 -0.00376788 -0.00345419 -9.71592e-08 -0.00376788 -1.02809e-07 -0.0570907 -0.0341037 -0.0816369 -0.0587313 -0.0341037 -0.0148236 -0.0587313 -0.0354858 -0.0816369 -0.0587313 -1 -0.92388 -0.0587313 -0.0354858 -0.92388 -0.707107 -0.0148236 -0.00376788 -0.0354858 -0.0161849 -0.00376788 -1.02809e-07 -0.0161849 -9.75606e-08 -0.0354858 -0.0161849 -0.707107 -0.382683 -0.0161849 -9.75606e-08 -0.382683 -4.89859e-16 -4.89859e-16 1 -9.71592e-08 0.003454 1 6.12323e-16 0.003454 -0.00781465 -9.71592e-08 0.003454 -1.02809e-07 0.00376769 0.003454 -0.00781465 0.00376769 0.0148234 6.12323e-16 -1 -0.00781465 0.00584972 -1 -7.34788e-16 0.00584972 0.044959 -0.00781465 0.00584972 0.0148234 0.0341036 0.00584972 0.044959 0.0341036 0.0570906 -1.02809e-07 0.00376769 -9.75606e-08 0.0161847 0.00376769 0.0148234 0.0161847 0.0354857 -9.75606e-08 0.0161847 -4.89859e-16 0.382683 0.0161847 0.0354857 0.382683 0.707107 0.0148234 0.0341036 0.0354857 0.0587312 0.0341036 0.0570906 0.0587312 0.0816368 0.0354857 0.0587312 0.707107 0.92388 0.0587312 0.0816368 0.92388 1 0.0130213 0.0232863 0.027609 0.0364708 0.0232863 0.028673 0.0364708 0.0390023 0.027609 0.0364708 0.0454146 0.0561139 0.0364708 0.0390023 0.0561139 0.0599493 0.028673 0.0266369 0.0390023 0.0331526 0.0266369 -9.79717e-16 0.0331526 0.0103474 0.0390023 0.0331526 0.0599493 0.0579464 0.0331526 0.0103474 0.0579464 0.0527065 0.0454146 0.0561139 0.0737081 0.0885434 0.0561139 0.0599493 0.0885434 0.0955594 0.0737081 0.0885434 1 0.9868 0.0885434 0.0955594 0.9868 0.947548 0.0599493 0.0579464 0.0955594 0.0940774 0.0579464 0.0527065 0.0940774 0.0906554 0.0955594 0.0940774 0.947548 0.88328 0.0940774 0.0906554 0.88328 0.795693 -9.79717e-16 -1 0.0103474 0.0387651 -1 8.57253e-16 0.0387651 0.0743679 0.0103474 0.0387651 0.0527065 0.0680676 0.0387651 0.0743679 0.0680676 0.0777252 8.57253e-16 1 0.0743679 0.0805789 1 -7.34788e-16 0.0805789 0.044959 0.0743679 0.0805789 0.0777252 0.0746531 0.0805789 0.044959 0.0746531 0.0570906 0.0527065 0.0680676 0.0906554 0.0992321 0.0680676 0.0777252 0.0992321 0.103976 0.0906554 0.0992321 0.795693 0.88328 0.0992321 0.103976 0.88328 0.947548 0.0777252 0.0746531 0.103976 0.0979123 0.0746531 0.0570906 0.0979123 0.0816368 0.103976 0.0979123 0.947548 0.9868 0.0979123 0.0816368 0.9868 1 -7.34788e-16 -1 0.044959 0.00584968 -1 6.12323e-16 0.00584968 -0.00781471 0.044959 0.00584968 0.0570906 0.0341035 0.00584968 -0.00781471 0.0341035 0.0148233 6.12323e-16 1 -0.00781471 0.00345392 1 -4.89859e-16 0.00345392 -1.81439e-07 -0.00781471 0.00345392 0.0148233 0.0037676 0.00345392 -1.81439e-07 0.0037676 -1.97274e-07 0.0570906 0.0341035 0.0816368 0.0587311 0.0341035 0.0148233 0.0587311 0.0354856 0.0816368 0.0587311 1 0.92388 0.0587311 0.0354856 0.92388 0.707107 0.0148233 0.0037676 0.0354856 0.0161846 0.0037676 -1.97274e-07 0.0161846 -1.95858e-07 0.0354856 0.0161846 0.707107 0.382683 0.0161846 -1.95858e-07 0.382683 -4.89859e-16 -4.89859e-16 -1 -1.81439e-07 -0.00345429 -1 3.67394e-16 -0.00345429 0.00781436 -1.81439e-07 -0.00345429 -1.97274e-07 -0.003768 -0.00345429 0.00781436 -0.003768 -0.0148237 3.67394e-16 1 0.00781436 -0.00584999 1 -2.44929e-16 -0.00584999 -0.0449592 0.00781436 -0.00584999 -0.0148237 -0.0341038 -0.00584999 -0.0449592 -0.0341038 -0.0570909 -1.97274e-07 -0.003768 -1.95858e-07 -0.016185 -0.003768 -0.0148237 -0.016185 -0.035486 -1.95858e-07 -0.016185 -4.89859e-16 -0.382683 -0.016185 -0.035486 -0.382683 -0.707107 -0.0148237 -0.0341038 -0.035486 -0.0587315 -0.0341038 -0.0570909 -0.0587315 -0.0816371 -0.035486 -0.0587315 -0.707107 -0.92388 -0.0587315 -0.0816371 -0.92388 -1 -2.44929e-16 -1 -0.0449592 -0.0805791 -1 1.22465e-16 -0.0805791 -0.0743681 -0.0449592 -0.0805791 -0.0570909 -0.0746533 -0.0805791 -0.0743681 -0.0746533 -0.0777253 1.22465e-16 1 -0.0743681 -0.0387651 1 0 -0.0387651 -0.0103474 -0.0743681 -0.0387651 -0.0777253 -0.0680677 -0.0387651 -0.0103474 -0.0680677 -0.0527066 -0.0570909 -0.0746533 -0.0816371 -0.0979125 -0.0746533 -0.0777253 -0.0979125 -0.103976 -0.0816371 -0.0979125 -1 -0.9868 -0.0979125 -0.103976 -0.9868 -0.947548 -0.0777253 -0.0680677 -0.103976 -0.0992323 -0.0680677 -0.0527066 -0.0992323 -0.0906555 -0.103976 -0.0992323 -0.947548 -0.88328 -0.0992323 -0.0906555 -0.88328 -0.795693 -0.0130211 -0.027609 -0.0232862 -0.0364707 -0.027609 -0.0454146 -0.0364707 -0.0561139 -0.0232862 -0.0364707 -0.0286729 -0.0390023 -0.0364707 -0.0561139 -0.0390023 -0.0599493 -0.0454146 -0.0737081 -0.0561139 -0.0885434 -0.0737081 -1 -0.0885434 -0.9868 -0.0561139 -0.0885434 -0.0599493 -0.0955594 -0.0885434 -0.9868 -0.0955594 -0.947548 -0.0286729 -0.0390023 -0.0266369 -0.0331526 -0.0390023 -0.0599493 -0.0331526 -0.0579465 -0.0266369 -0.0331526 0 -0.0103474 -0.0331526 -0.0579465 -0.0103474 -0.0527066 -0.0599493 -0.0955594 -0.0579465 -0.0940775 -0.0955594 -0.947548 -0.0940775 -0.88328 -0.0579465 -0.0940775 -0.0527066 -0.0906555 -0.0940775 -0.88328 -0.0906555 -0.795693 1.61912e-07 1.35979e-07 0.00288988 -0.000901325 1.35979e-07 8.37596e-08 -0.000901325 -0.00602483 0.00288988 -0.000901325 0.00270576 -0.00643961 -0.000901325 -0.00602483 -0.00643961 -0.017179 8.37596e-08 2.77383e-08 -0.00602483 -0.0155902 2.77383e-08 -2.26622e-15 -0.0155902 -0.382683 -0.00602483 -0.0155902 -0.017179 -0.0331635 -0.0155902 -0.382683 -0.0331635 -0.707107 0.00270576 -0.00643961 -0.0028207 -0.0163484 -0.00643961 -0.017179 -0.0163484 -0.0315644 -0.0028207 -0.0163484 -0.0130211 -0.027609 -0.0163484 -0.0315644 -0.027609 -0.0454146 -0.017179 -0.0331635 -0.0315644 -0.0537427 -0.0331635 -0.707107 -0.0537427 -0.92388 -0.0315644 -0.0537427 -0.0454146 -0.0737081 -0.0537427 -0.92388 -0.0737081 -1 1.61912e-07 -0.00288958 1.35979e-07 0.000901553 -0.00288958 -0.00270551 0.000901553 0.0064398 1.35979e-07 0.000901553 8.37596e-08 0.00602496 0.000901553 0.0064398 0.00602496 0.0171791 -0.00270551 0.00282091 0.0064398 0.0163486 0.00282091 0.0130213 0.0163486 0.027609 0.0064398 0.0163486 0.0171791 0.0315644 0.0163486 0.027609 0.0315644 0.0454146 8.37596e-08 0.00602496 2.77383e-08 0.0155903 0.00602496 0.0171791 0.0155903 0.0331636 2.77383e-08 0.0155903 -2.26622e-15 0.382683 0.0155903 0.0331636 0.382683 0.707107 0.0171791 0.0315644 0.0331636 0.0537426 0.0315644 0.0454146 0.0537426 0.0737081 0.0331636 0.0537426 0.707107 0.92388 0.0537426 0.0737081 0.92388 1 -1.22465e-15 1 0.0435409 0.0683255 1 4.89983e-15 0.0683255 0.0476605 0.0435409 0.0683255 0.0562987 0.0669454 0.0683255 0.0476605 0.0669454 0.0628235 4.89983e-15 -1 0.0476605 -0.0214461 -1 -1.46958e-15 -0.0214461 -0.128915 0.0476605 -0.0214461 0.0628235 0.0445034 -0.0214461 -0.128915 0.0445034 0.018764 0.0562987 0.0669454 0.0818684 0.0940653 0.0669454 0.0628235 0.0940653 0.0972733 0.0818684 0.0940653 1 0.9868 0.0940653 0.0972733 0.9868 0.947548 0.0628235 0.0445034 0.0972733 0.0909447 0.0445034 0.018764 0.0909447 0.0824096 0.0972733 0.0909447 0.947548 0.88328 0.0909447 0.0824096 0.88328 0.795693 -1.46958e-15 -1 -0.128915 -0.0214461 -1 4.89983e-15 -0.0214461 0.0476605 -0.128915 -0.0214461 0.018764 0.0445034 -0.0214461 0.0476605 0.0445034 0.0628235 4.89983e-15 1 0.0476605 0.0683255 1 -1.22465e-15 0.0683255 0.043541 0.0476605 0.0683255 0.0628235 0.0669455 0.0683255 0.043541 0.0669455 0.0562988 0.018764 0.0445034 0.0824096 0.0909448 0.0445034 0.0628235 0.0909448 0.0972733 0.0824096 0.0909448 0.795693 0.88328 0.0909448 0.0972733 0.88328 0.947548 0.0628235 0.0669455 0.0972733 0.0940654 0.0669455 0.0562988 0.0940654 0.0818684 0.0972733 0.0940654 0.947548 0.9868 0.0940654 0.0818684 0.9868 1 -1.22465e-15 -1 0.043541 0.013483 -1 1.10218e-15 0.013483 0.00829936 0.043541 0.013483 0.0562988 0.0401355 0.013483 0.00829936 0.0401355 0.0272676 1.10218e-15 1 0.00829936 0.0318846 1 -9.79717e-16 0.0318846 0.0488116 0.00829936 0.0318846 0.0272676 0.0222476 0.0318846 0.0488116 0.0222476 0.0239985 0.0562988 0.0401355 0.0818684 0.0636054 0.0401355 0.0272676 0.0636054 0.0450086 0.0818684 0.0636054 1 0.92388 0.0636054 0.0450086 0.92388 0.707107 0.0272676 0.0222476 0.0450086 0.0300968 0.0222476 0.0239985 0.0300968 0.0167158 0.0450086 0.0300968 0.707107 0.382683 0.0300968 0.0167158 0.382683 -9.79717e-16 0.0130213 -0.00161948 0.0232863 0.00910307 -0.00161948 -0.0196553 0.00910307 -0.00731849 0.0232863 0.00910307 0.028673 0.0196496 0.00910307 -0.00731849 0.0196496 0.00600967 -0.0196553 -0.0484849 -0.00731849 -0.0307444 -0.0484849 -1 -0.0307444 -0.92388 -0.00731849 -0.0307444 0.00600967 -0.0122274 -0.0307444 -0.92388 -0.0122274 -0.707107 0.028673 0.0196496 0.0266369 0.0296035 0.0196496 0.00600967 0.0296035 0.016971 0.0266369 0.0296035 -9.79717e-16 0.0488116 0.0296035 0.016971 0.0488116 0.0239985 0.00600967 -0.0122274 0.016971 0.00339258 -0.0122274 -0.707107 0.00339258 -0.382683 0.016971 0.00339258 0.0239985 0.0167158 0.00339258 -0.382683 0.0167158 -9.79717e-16 1.61912e-07 -0.00686597 -0.00288958 -0.0107786 -0.00686597 -0.0211465 -0.0107786 -0.0273662 -0.00288958 -0.0107786 -0.00270551 -0.0124905 -0.0107786 -0.0273662 -0.0124905 -0.0307778 -0.0211465 -0.0555397 -0.0273662 -0.0617312 -0.0555397 -0.795693 -0.0617312 -0.88328 -0.0273662 -0.0617312 -0.0307778 -0.0658692 -0.0617312 -0.88328 -0.0658692 -0.947548 -0.00270551 -0.0124905 0.00282091 -0.00976155 -0.0124905 -0.0307778 -0.00976155 -0.0286568 0.00282091 -0.00976155 0.0130213 -0.00161948 -0.00976155 -0.0286568 -0.00161948 -0.0196553 -0.0307778 -0.0658692 -0.0286568 -0.0611095 -0.0658692 -0.947548 -0.0611095 -0.9868 -0.0286568 -0.0611095 -0.0196553 -0.0484849 -0.0611095 -0.9868 -0.0484849 -1 0.0130212 -0.00161955 0.00282088 -0.00976159 -0.00161955 -0.0196553 -0.00976159 -0.0286568 0.00282088 -0.00976159 -0.0027055 -0.0124905 -0.00976159 -0.0286568 -0.0124905 -0.0307779 -0.0196553 -0.048485 -0.0286568 -0.0611096 -0.048485 -1 -0.0611096 -0.9868 -0.0286568 -0.0611096 -0.0307779 -0.0658693 -0.0611096 -0.9868 -0.0658693 -0.947548 -0.0027055 -0.0124905 -0.00288957 -0.0107786 -0.0124905 -0.0307779 -0.0107786 -0.0273662 -0.00288957 -0.0107786 1.61912e-07 -0.00686597 -0.0107786 -0.0273662 -0.00686597 -0.0211465 -0.0307779 -0.0658693 -0.0273662 -0.0617312 -0.0658693 -0.947548 -0.0617312 -0.88328 -0.0273662 -0.0617312 -0.0211465 -0.0555397 -0.0617312 -0.88328 -0.0555397 -0.795693 -9.79717e-16 0.0488115 0.0266368 0.0296034 0.0488115 0.0239984 0.0296034 0.0169709 0.0266368 0.0296034 0.0286729 0.0196495 0.0296034 0.0169709 0.0196495 0.00600958 0.0239984 0.0167157 0.0169709 0.00339248 0.0167157 -9.79717e-16 0.00339248 -0.382683 0.0169709 0.00339248 0.00600958 -0.0122275 0.00339248 -0.382683 -0.0122275 -0.707107 0.0286729 0.0196495 0.0232862 0.00910298 0.0196495 0.00600958 0.00910298 -0.00731857 0.0232862 0.00910298 0.0130212 -0.00161955 0.00910