# vtk DataFile Version 3.0
#This file was generated by the deal.II library on 2015/4/21 at 16:38:21
ASCII
DATASET UNSTRUCTURED_GRID

POINTS 55064 double
1 0 0
1 0.25 0
0.8125 0 0
0.807924 0.198549 0
1 0.25 0
1 0.5 0
0.807924 0.198549 0
0.803347 0.397097 0
0.8125 0 0
0.807924 0.198549 0
0.625 0 0
0.615847 0.147097 0
0.807924 0.198549 0
0.803347 0.397097 0
0.615847 0.147097 0
0.606694 0.294194 0
1 0.5 0
1 0.75 0
0.803347 0.397097 0
0.798771 0.595646 0
1 0.75 0
1 1 0
0.798771 0.595646 0
0.794194 0.794194 0
0.803347 0.397097 0
0.798771 0.595646 0
0.606694 0.294194 0
0.597541 0.441291 0
0.798771 0.595646 0
0.794194 0.794194 0
0.597541 0.441291 0
0.588388 0.588388 0
1 1 0
0.75 1 0
0.794194 0.794194 0
0.595646 0.798771 0
0.75 1 0
0.5 1 0
0.595646 0.798771 0
0.397097 0.803347 0
0.794194 0.794194 0
0.595646 0.798771 0
0.588388 0.588388 0
0.441291 0.597541 0
0.595646 0.798771 0
0.397097 0.803347 0
0.441291 0.597541 0
0.294194 0.606694 0
0.5 1 0
0.25 1 0
0.397097 0.803347 0
0.198549 0.807924 0
0.25 1 0
6.12323e-17 1 0
0.198549 0.807924 0
4.97513e-17 0.8125 0
0.397097 0.803347 0
0.198549 0.807924 0
0.294194 0.606694 0
0.147097 0.615847 0
0.198549 0.807924 0
4.97513e-17 0.8125 0
0.147097 0.615847 0
3.82702e-17 0.625 0
6.12323e-17 1 0
-0.25 1 0
4.97513e-17 0.8125 0
-0.198549 0.807924 0
-0.25 1 0
-0.5 1 0
-0.198549 0.807924 0
-0.397097 0.803347 0
4.97513e-17 0.8125 0
-0.198549 0.807924 0
3.82702e-17 0.625 0
-0.147097 0.615847 0
-0.198549 0.807924 0
-0.397097 0.803347 0
-0.147097 0.615847 0
-0.294194 0.606694 0
-0.5 1 0
-0.75 1 0
-0.397097 0.803347 0
-0.595646 0.798771 0
-0.397097 0.803347 0
-0.595646 0.798771 0
-0.294194 0.606694 0
-0.441291 0.597541 0
1 -0.75 0
1 -0.5 0
0.798771 -0.595646 0
0.803347 -0.397097 0
0.798771 -0.595646 0
0.803347 -0.397097 0
0.597541 -0.441291 0
0.606694 -0.294194 0
1 -0.5 0
1 -0.25 0
0.803347 -0.397097 0
0.807924 -0.198549 0
1 -0.25 0
1 0 0
0.807924 -0.198549 0
0.8125 0 0
0.803347 -0.397097 0
0.807924 -0.198549 0
0.606694 -0.294194 0
0.615847 -0.147097 0
0.807924 -0.198549 0
0.8125 0 0
0.615847 -0.147097 0
0.625 0 0
2.75 1 0
2.5 1 0
2.59565 0.798771 0
2.3971 0.803347 0
2.59565 0.798771 0
2.3971 0.803347 0
2.44129 0.597541 0
2.29419 0.606694 0
2.5 1 0
2.25 1 0
2.3971 0.803347 0
2.19855 0.807924 0
2.25 1 0
2 1 0
2.19855 0.807924 0
2 0.8125 0
2.3971 0.803347 0
2.19855 0.807924 0
2.29419 0.606694 0
2.1471 0.615847 0
2.19855 0.807924 0
2 0.8125 0
2.1471 0.615847 0
2 0.625 0
2 1 0
1.75 1 0
2 0.8125 0
1.80145 0.807924 0
1.75 1 0
1.5 1 0
1.80145 0.807924 0
1.6029 0.803347 0
2 0.8125 0
1.80145 0.807924 0
2 0.625 0
1.8529 0.615847 0
1.80145 0.807924 0
1.6029 0.803347 0
1.8529 0.615847 0
1.70581 0.606694 0
1.5 1 0
1.25 1 0
1.6029 0.803347 0
1.40435 0.798771 0
1.25 1 0
1 1 0
1.40435 0.798771 0
1.20581 0.794194 0
1.6029 0.803347 0
1.40435 0.798771 0
1.70581 0.606694 0
1.55871 0.597541 0
1.40435 0.798771 0
1.20581 0.794194 0
1.55871 0.597541 0
1.41161 0.588388 0
1 0 0
1.1875 7.65404e-18 0
1 0.25 0
1.19208 0.198549 0
1.1875 7.65404e-18 0
1.375 1.53081e-17 0
1.19208 0.198549 0
1.38415 0.147097 0
1 0.25 0
1.19208 0.198549 0
1 0.5 0
1.19665 0.397097 0
1.19208 0.198549 0
1.38415 0.147097 0
1.19665 0.397097 0
1.39331 0.294194 0
1 0.5 0
1.19665 0.397097 0
1 0.75 0
1.20123 0.595646 0
1.19665 0.397097 0
1.39331 0.294194 0
1.20123 0.595646 0
1.40246 0.441291 0
1 0.75 0
1.20123 0.595646 0
1 1 0
1.20581 0.794194 0
1.20123 0.595646 0
1.40246 0.441291 0
1.20581 0.794194 0
1.41161 0.588388 0
1 -0.75 0
1.20123 -0.595646 0
1 -0.5 0
1.19665 -0.397097 0
1.20123 -0.595646 0
1.40246 -0.441291 0
1.19665 -0.397097 0
1.39331 -0.294194 0
1 -0.5 0
1.19665 -0.397097 0
1 -0.25 0
1.19208 -0.198549 0
1.19665 -0.397097 0
1.39331 -0.294194 0
1.19208 -0.198549 0
1.38415 -0.147097 0
1 -0.25 0
1.19208 -0.198549 0
1 0 0
1.1875 7.65404e-18 0
1.19208 -0.198549 0
1.38415 -0.147097 0
1.1875 7.65404e-18 0
1.375 1.53081e-17 0
1 2 0
1 2.25 0
0.8125 2 0
0.807924 2.19855 0
1 2.25 0
1 2.5 0
0.807924 2.19855 0
0.803347 2.3971 0
0.8125 2 0
0.807924 2.19855 0
0.625 2 0
0.615847 2.1471 0
0.807924 2.19855 0
0.803347 2.3971 0
0.615847 2.1471 0
0.606694 2.29419 0
1 2.5 0
1 2.75 0
0.803347 2.3971 0
0.798771 2.59565 0
0.803347 2.3971 0
0.798771 2.59565 0
0.606694 2.29419 0
0.597541 2.44129 0
6.12323e-17 1 0
3.44432e-17 1.1875 0
-0.25 1 0
-0.198549 1.19208 0
3.44432e-17 1.1875 0
7.65404e-18 1.375 0
-0.198549 1.19208 0
-0.147097 1.38415 0
-0.25 1 0
-0.198549 1.19208 0
-0.5 1 0
-0.397097 1.19665 0
-0.198549 1.19208 0
-0.147097 1.38415 0
-0.397097 1.19665 0
-0.294194 1.39331 0
-0.5 1 0
-0.397097 1.19665 0
-0.75 1 0
-0.595646 1.20123 0
-0.397097 1.19665 0
-0.294194 1.39331 0
-0.595646 1.20123 0
-0.441291 1.40246 0
1 1 0
0.794194 1.20581 0
0.75 1 0
0.595646 1.20123 0
0.794194 1.20581 0
0.588388 1.41161 0
0.595646 1.20123 0
0.441291 1.40246 0
0.75 1 0
0.595646 1.20123 0
0.5 1 0
0.397097 1.19665 0
0.595646 1.20123 0
0.441291 1.40246 0
0.397097 1.19665 0
0.294194 1.39331 0
0.5 1 0
0.397097 1.19665 0
0.25 1 0
0.198549 1.19208 0
0.397097 1.19665 0
0.294194 1.39331 0
0.198549 1.19208 0
0.147097 1.38415 0
0.25 1 0
0.198549 1.19208 0
6.12323e-17 1 0
3.44432e-17 1.1875 0
0.198549 1.19208 0
0.147097 1.38415 0
3.44432e-17 1.1875 0
7.65404e-18 1.375 0
1 1 0
1 1.25 0
0.794194 1.20581 0
0.798771 1.40435 0
1 1.25 0
1 1.5 0
0.798771 1.40435 0
0.803347 1.6029 0
0.794194 1.20581 0
0.798771 1.40435 0
0.588388 1.41161 0
0.597541 1.55871 0
0.798771 1.40435 0
0.803347 1.6029 0
0.597541 1.55871 0
0.606694 1.70581 0
1 1.5 0
1 1.75 0
0.803347 1.6029 0
0.807924 1.80145 0
1 1.75 0
1 2 0
0.807924 1.80145 0
0.8125 2 0
0.803347 1.6029 0
0.807924 1.80145 0
0.606694 1.70581 0
0.615847 1.8529 0
0.807924 1.80145 0
0.8125 2 0
0.615847 1.8529 0
0.625 2 0
1 2 0
1.1875 2 0
1 2.25 0
1.19208 2.19855 0
1.1875 2 0
1.375 2 0
1.19208 2.19855 0
1.38415 2.1471 0
1 2.25 0
1.19208 2.19855 0
1 2.5 0
1.19665 2.3971 0
1.19208 2.19855 0
1.38415 2.1471 0
1.19665 2.3971 0
1.39331 2.29419 0
1 2.5 0
1.19665 2.3971 0
1 2.75 0
1.20123 2.59565 0
1.19665 2.3971 0
1.39331 2.29419 0
1.20123 2.59565 0
1.40246 2.44129 0
1 1 0
1.20581 1.20581 0
1 1.25 0
1.20123 1.40435 0
1.20581 1.20581 0
1.41161 1.41161 0
1.20123 1.40435 0
1.40246 1.55871 0
1 1.25 0
1.20123 1.40435 0
1 1.5 0
1.19665 1.6029 0
1.20123 1.40435 0
1.40246 1.55871 0
1.19665 1.6029 0
1.39331 1.70581 0
1 1.5 0
1.19665 1.6029 0
1 1.75 0
1.19208 1.80145 0
1.19665 1.6029 0
1.39331 1.70581 0
1.19208 1.80145 0
1.38415 1.8529 0
1 1.75 0
1.19208 1.80145 0
1 2 0
1.1875 2 0
1.19208 1.80145 0
1.38415 1.8529 0
1.1875 2 0
1.375 2 0
2 1 0
2 1.1875 0
1.75 1 0
1.80145 1.19208 0
2 1.1875 0
2 1.375 0
1.80145 1.19208 0
1.8529 1.38415 0
1.75 1 0
1.80145 1.19208 0
1.5 1 0
1.6029 1.19665 0
1.80145 1.19208 0
1.8529 1.38415 0
1.6029 1.19665 0
1.70581 1.39331 0
1.5 1 0
1.6029 1.19665 0
1.25 1 0
1.40435 1.20123 0
1.6029 1.19665 0
1.70581 1.39331 0
1.40435 1.20123 0
1.55871 1.40246 0
1.25 1 0
1.40435 1.20123 0
1 1 0
1.20581 1.20581 0
1.40435 1.20123 0
1.55871 1.40246 0
1.20581 1.20581 0
1.41161 1.41161 0
2.75 1 0
2.59565 1.20123 0
2.5 1 0
2.3971 1.19665 0
2.59565 1.20123 0
2.44129 1.40246 0
2.3971 1.19665 0
2.29419 1.39331 0
2.5 1 0
2.3971 1.19665 0
2.25 1 0
2.19855 1.19208 0
2.3971 1.19665 0
2.29419 1.39331 0
2.19855 1.19208 0
2.1471 1.38415 0
2.25 1 0
2.19855 1.19208 0
2 1 0
2 1.1875 0
2.19855 1.19208 0
2.1471 1.38415 0
2 1.1875 0
2 1.375 0
-0.75 1 0
-0.875 1 0
-0.672823 0.899385 0
-0.78496 0.898241 0
-0.672823 0.899385 0
-0.78496 0.898241 0
-0.595646 0.798771 0
-0.69492 0.796482 0
-0.798771 0.595646 0
-0.801059 0.496371 0
-0.698156 0.518468 0
-0.701588 0.432057 0
-0.801059 0.496371 0
-0.803347 0.397097 0
-0.701588 0.432057 0
-0.705021 0.345646 0
-0.698156 0.518468 0
-0.701588 0.432057 0
-0.597541 0.441291 0
-0.602118 0.367743 0
-0.701588 0.432057 0
-0.705021 0.345646 0
-0.602118 0.367743 0
-0.606694 0.294194 0
-0.803347 0.397097 0
-0.805635 0.297823 0
-0.705021 0.345646 0
-0.708453 0.259234 0
-0.705021 0.345646 0
-0.708453 0.259234 0
-0.606694 0.294194 0
-0.611271 0.220646 0
-0.708453 0.259234 0
-0.711885 0.172823 0
-0.611271 0.220646 0
-0.615847 0.147097 0
-0.810212 0.0992743 0
-0.8125 9.95026e-17 0
-0.715318 0.0864114 0
-0.71875 8.80215e-17 0
-0.711885 0.172823 0
-0.715318 0.0864114 0
-0.615847 0.147097 0
-0.620424 0.0735485 0
-0.715318 0.0864114 0
-0.71875 8.80215e-17 0
-0.620424 0.0735485 0
-0.625 7.65404e-17 0
-0.803347 -0.397097 0
-0.801059 -0.496371 0
-0.705021 -0.345646 0
-0.701588 -0.432057 0
-0.705021 -0.345646 0
-0.701588 -0.432057 0
-0.606694 -0.294194 0
-0.602118 -0.367743 0
-0.701588 -0.432057 0
-0.698156 -0.518468 0
-0.602118 -0.367743 0
-0.597541 -0.441291 0
-0.496371 -0.801059 0
-0.397097 -0.803347 0
-0.432057 -0.701588 0
-0.345646 -0.705021 0
-0.518468 -0.698156 0
-0.432057 -0.701588 0
-0.441291 -0.597541 0
-0.367743 -0.602118 0
-0.432057 -0.701588 0
-0.345646 -0.705021 0
-0.367743 -0.602118 0
-0.294194 -0.606694 0
-1.49254e-16 -0.8125 0
0.0992743 -0.810212 0
-1.32032e-16 -0.71875 0
0.0864114 -0.715318 0
-1.32032e-16 -0.71875 0
0.0864114 -0.715318 0
-1.14811e-16 -0.625 0
0.0735485 -0.620424 0
0.0864114 -0.715318 0
0.172823 -0.711885 0
0.0735485 -0.620424 0
0.147097 -0.615847 0
0.397097 -0.803347 0
0.496371 -0.801059 0
0.345646 -0.705021 0
0.432057 -0.701588 0
0.496371 -0.801059 0
0.595646 -0.798771 0
0.432057 -0.701588 0
0.518468 -0.698156 0
0.345646 -0.705021 0
0.432057 -0.701588 0
0.294194 -0.606694 0
0.367743 -0.602118 0
0.432057 -0.701588 0
0.518468 -0.698156 0
0.367743 -0.602118 0
0.441291 -0.597541 0
1 -0.875 0
1 -0.75 0
0.898241 -0.78496 0
0.899385 -0.672823 0
0.898241 -0.78496 0
0.899385 -0.672823 0
0.796482 -0.69492 0
0.798771 -0.595646 0
2.80335 0.397097 0
2.80106 0.496371 0
2.70502 0.345646 0
2.70159 0.432057 0
2.80106 0.496371 0
2.79877 0.595646 0
2.70159 0.432057 0
2.69816 0.518468 0
2.70502 0.345646 0
2.70159 0.432057 0
2.60669 0.294194 0
2.60212 0.367743 0
2.70159 0.432057 0
2.69816 0.518468 0
2.60212 0.367743 0
2.59754 0.441291 0
2.79648 0.69492 0
2.79419 0.794194 0
2.69472 0.60488 0
2.69129 0.691291 0
2.69816 0.518468 0
2.69472 0.60488 0
2.59754 0.441291 0
[...]
POINT_DATA 55064
SCALARS solution double 1
LOOKUP_TABLE default
-0.0293567 -0.00826839 0.000525287 0.0172069 -0.00826839 0.00365235 0.0172069 0.0227995 0.000525287 0.0172069 0.0385078 0.0561556 0.0172069 0.0227995 0.0561556 0.0594033 0.00365235 0.00493179 0.0227995 0.0197271 0.00493179 8.55796e-09 0.0197271 0.0124979 0.0227995 0.0197271 0.0594033 0.0520782 0.0197271 0.0124979 0.0520782 0.039728 8.55796e-09 0.0050369 0.0124979 0.0198114 0.0050369 0.00386227 0.0198114 0.0229659 0.0124979 0.0198114 0.039728 0.0521411 0.0198114 0.0229659 0.0521411 0.0595271 0.00386227 -0.00795441 0.0229659 0.0174507 -0.00795441 -0.0289487 0.0174507 0.000835304 0.0229659 0.0174507 0.0595271 0.0563364 0.0174507 0.000835304 0.0563364 0.0387377 -0.0289487 -0.0500913 0.000835304 -0.022095 -0.0500913 -0.0619262 -0.022095 -0.0463346 0.000835304 -0.022095 0.0387377 0.0131611 -0.022095 -0.0463346 0.0131611 -0.0171295 -0.0619262 -0.0612933 -0.0463346 -0.0724065 -0.0463346 -0.0724065 -0.0171295 -0.0428652 -0.0617226 -0.0623989 -0.0727619 -0.0467004 -0.0727619 -0.0467004 -0.0431401 -0.0174033 -0.0623989 -0.0505582 -0.0467004 -0.0224462 -0.0505582 -0.0293567 -0.0224462 0.000525287 -0.0467004 -0.0224462 -0.0174033 0.0129016 -0.0224462 0.000525287 0.0129016 0.0385078 0.0612933 0.0619262 0.0620328 0.0785643 0.0620328 0.0785643 0.11416 0.121109 0.0619262 0.0500913 0.0785643 0.0755279 0.0500913 0.0289487 0.0755279 0.0586272 0.0785643 0.0755279 0.121109 0.116028 0.0755279 0.0586272 0.116028 0.0961557 0.0289487 0.00795443 0.0586272 0.0357215 0.00795443 -0.00386226 0.0357215 0.0147147 0.0586272 0.0357215 0.0961557 0.068597 0.0357215 0.0147147 0.068597 0.0374884 -0.00386226 -0.00503689 0.0147147 0.00253429 -0.00503689 8.55796e-09 0.00253429 -8.66606e-05 0.0147147 0.00253429 0.0374884 0.0132712 0.00253429 -8.66606e-05 0.0132712 -0.000172347 -0.0293567 -0.0591542 -0.00826839 -0.0361552 -0.0591542 -0.0968319 -0.0361552 -0.069164 -0.00826839 -0.0361552 0.00365235 -0.0150554 -0.0361552 -0.069164 -0.0150554 -0.0379624 0.00365235 -0.0150554 0.00493179 -0.00278959 -0.0150554 -0.0379624 -0.00278959 -0.0136742 0.00493179 -0.00278959 8.55796e-09 -8.66606e-05 -0.00278959 -0.0136742 -8.66606e-05 -0.000172347 -0.0617226 -0.0626286 -0.0623989 -0.0791858 -0.0626286 -0.114983 -0.0791858 -0.121937 -0.0623989 -0.0791858 -0.0505582 -0.0761276 -0.0791858 -0.121937 -0.0761276 -0.11681 -0.0505582 -0.0761276 -0.0293567 -0.0591542 -0.0761276 -0.11681 -0.0591542 -0.0968319 0.0293567 0.0505582 0.0591542 0.0761276 0.0505582 0.0623989 0.0761276 0.0791858 0.0591542 0.0761276 0.0968319 0.11681 0.0761276 0.0791858 0.11681 0.121937 0.0623989 0.0617226 0.0791858 0.0626286 0.0791858 0.0626286 0.121937 0.114983 -0.0289487 -0.0586272 -0.0500913 -0.0755279 -0.0586272 -0.0961557 -0.0755279 -0.116028 -0.0500913 -0.0755279 -0.0619262 -0.0785643 -0.0755279 -0.116028 -0.0785643 -0.121109 -0.0619262 -0.0785643 -0.0612933 -0.0620328 -0.0785643 -0.121109 -0.0620328 -0.11416 8.55796e-09 8.66742e-05 0.0050369 -0.00253428 8.66742e-05 0.000172351 -0.00253428 -0.0132712 0.0050369 -0.00253428 0.00386227 -0.0147147 -0.00253428 -0.0132712 -0.0147147 -0.0374884 0.00386227 -0.0147147 -0.00795441 -0.0357215 -0.0147147 -0.0374884 -0.0357215 -0.068597 -0.00795441 -0.0357215 -0.0289487 -0.0586272 -0.0357215 -0.068597 -0.0586272 -0.0961557 8.55796e-09 -0.00493178 8.66742e-05 0.0027896 -0.00493178 -0.00365233 0.0027896 0.0150554 8.66742e-05 0.0027896 0.000172351 0.0136742 0.0027896 0.0150554 0.0136742 0.0379624 -0.00365233 0.0082684 0.0150554 0.0361552 0.0082684 0.0293567 0.0361552 0.0591542 0.0150554 0.0361552 0.0379624 0.069164 0.0361552 0.0591542 0.069164 0.0968319 0.0293567 -0.000525278 0.0505582 0.0224462 -0.000525278 -0.0385078 0.0224462 -0.0129016 0.0505582 0.0224462 0.0623989 0.0467004 0.0224462 -0.0129016 0.0467004 0.0174033 0.0623989 0.0467004 0.0617226 0.072762 0.0467004 0.0174033 0.072762 0.0431401 8.55796e-09 -0.0124979 -0.00493178 -0.0197271 -0.0124979 -0.0397279 -0.0197271 -0.0520782 -0.00493178 -0.0197271 -0.00365233 -0.0227995 -0.0197271 -0.0520782 -0.0227995 -0.0594033 -0.00365233 -0.0227995 0.0082684 -0.0172069 -0.0227995 -0.0594033 -0.0172069 -0.0561556 0.0082684 -0.0172069 0.0293567 -0.000525278 -0.0172069 -0.0561556 -0.000525278 -0.0385078 0.0289487 -0.000835283 0.00795443 -0.0174507 -0.000835283 -0.0387377 -0.0174507 -0.0563364 0.00795443 -0.0174507 -0.00386226 -0.0229659 -0.0174507 -0.0563364 -0.0229659 -0.059527 -0.00386226 -0.0229659 -0.00503689 -0.0198113 -0.0229659 -0.059527 -0.0198113 -0.0521411 -0.00503689 -0.0198113 8.55796e-09 -0.0124979 -0.0198113 -0.0521411 -0.0124979 -0.0397279 0.0612933 0.0724065 0.0619262 0.0463346 0.0724065 0.0428652 0.0463346 0.0171295 0.0619262 0.0463346 0.0500913 0.0220951 0.0463346 0.0171295 0.0220951 -0.013161 0.0500913 0.0220951 0.0289487 -0.000835283 0.0220951 -0.013161 -0.000835283 -0.0387377 -0.0612933 -0.0546309 -0.0780218 -0.0996564 -0.0780218 -0.0996564 -0.0724065 -0.0927318 -0.0996255 -0.0563462 -0.063062 -0.0474945 -0.0563462 -0.0162609 -0.0474945 -0.0386502 -0.063062 -0.0474945 -0.0544268 -0.055048 -0.0474945 -0.0386502 -0.055048 -0.0610695 -0.0162609 0.00329709 -0.0386502 -0.0411182 -0.0386502 -0.0411182 -0.0610695 -0.0731973 -0.0411182 -0.056697 -0.0731973 -0.090904 -0.0437876 -0.102931 -0.0836988 -0.11634 -0.056697 -0.0836988 -0.090904 -0.111871 -0.0836988 -0.11634 -0.111871 -0.132848 -0.129485 -0.045692 -0.13999 -0.102535 -0.13999 -0.102535 -0.155482 -0.138427 -0.102535 -0.0506969 -0.138427 -0.114296 -0.0457077 -0.129512 -0.102555 -0.140021 -0.0507082 -0.102555 -0.11431 -0.138451 -0.102555 -0.140021 -0.138451 -0.155515 -0.103014 -0.0438947 -0.116429 -0.0838117 -0.116429 -0.0838117 -0.132937 -0.111981 -0.0838117 -0.0568398 -0.111981 -0.0910134 -0.0164289 -0.056556 -0.0388219 -0.0476982 -0.056556 -0.0998721 -0.0476982 -0.0632938 -0.0388219 -0.0476982 -0.0612475 -0.0552392 -0.0476982 -0.0632938 -0.0552392 -0.0546411 -0.0550092 -0.0617226 -0.100024 -0.0784157 -0.100024 -0.0784157 -0.0930736 -0.0727619 0.15743 0.101784 0.157098 0.133469 0.101784 0.0452598 0.133469 0.103151 0.157098 0.133469 0.161487 0.151241 0.133469 0.103151 0.151241 0.135468 0.00884751 0.000632767 0.0740186 0.0528461 0.103151 0.0740186 0.135468 0.116862 0.0740186 0.0528461 0.116862 0.0986165 0.0546309 0.0612933 0.0231769 0.0497043 0.0231769 0.0497043 0.04034 0.0620328 -0.0550092 -0.023656 -0.0617226 -0.0502126 -0.023656 -0.0409106 -0.0502126 -0.0626286 -0.00117325 -0.00944533 -0.0534925 -0.0747316 -0.0534925 -0.0747316 -0.0993922 -0.117709 -0.0747316 -0.103935 -0.117709 -0.136428 -0.0459199 -0.102518 -0.103935 -0.134321 -0.102518 -0.15824 -0.134321 -0.158006 -0.103935 -0.134321 -0.136428 -0.152166 -0.134321 -0.158006 -0.152166 -0.162567 -0.0904441 -0.021482 -0.102811 -0.0624031 -0.102811 -0.0624031 -0.118178 -0.0911661 -0.0624031 -0.0278275 -0.0911661 -0.064079 0.030699 0.00183317 0.00451927 0.00347539 0.00183317 -0.0251254 0.00347539 -0.00257332 0.00451927 0.00347539 -0.0226702 -0.0111141 0.00347539 -0.00257332 -0.0111141 -0.00488143 -0.0251254 -0.0302899 -0.00257332 -0.00631183 -0.0302899 -0.000309055 -0.00631183 -0.000336591 -0.00257332 -0.00631183 -0.00488143 -0.00214919 -0.00631183 -0.000336591 -0.00214919 -0.000370954 -0.000309055 0.0296515 -0.000336591 0.00561416 0.0296515 0.0244701 0.00561416 0.00184938 -0.000336591 0.00561416 -0.000370954 0.00137902 0.00561416 0.00184938 0.00137902 0.00408695 0.0244701 -0.00251236 0.00184938 -0.00422955 -0.00251236 -0.0314147 -0.00422955 -0.00530828 0.00184938 -0.00422955 0.00408695 0.0102874 -0.00422955 -0.00530828 0.0102874 0.021808 0.0206566 0.0895857 0.0614941 0.101866 0.0269594 0.0614941 0.0631293 0.0901737 0.0614941 0.101866 0.0901737 0.117137 0.0617226 0.0550092 0.0502127 0.023656 0.0502127 0.023656 0.0626286 0.0409106 0.00117328 0.00944535 0.0534926 0.0747316 0.0534926 0.0747316 0.0993922 0.117709 0.0747316 0.103935 0.117709 0.136428 0.0459199 0.102518 0.103935 0.134321 0.102518 0.15824 0.134321 0.158006 0.103935 0.134321 0.136428 0.152166 0.134321 0.158006 0.152166 0.162567 0.0904441 0.0214819 0.102811 0.062403 0.102811 0.062403 0.118178 0.0911661 0.062403 0.0278274 0.0911661 0.064079 -0.030699 -0.00183317 -0.00451927 -0.00347539 -0.00183317 0.0251254 -0.00347539 0.00257332 -0.00451927 -0.00347539 0.0226702 0.0111141 -0.00347539 0.00257332 0.0111141 0.00488143 0.0251254 0.0302899 0.00257332 0.00631183 0.0302899 0.000309058 0.00631183 0.000336594 0.00257332 0.00631183 0.00488143 0.00214919 0.00631183 0.000336594 0.00214919 0.000370955 0.000309058 -0.0296515 0.000336594 -0.00561416 -0.0296515 -0.0244701 -0.00561416 -0.00184938 0.000336594 -0.00561416 0.000370955 -0.00137902 -0.00561416 -0.00184938 -0.00137902 -0.00408695 -0.0244701 0.00251236 -0.00184938 0.00422955 0.00251236 0.0314147 0.00422955 0.00530828 -0.00184938 0.00422955 -0.00408695 -0.0102874 0.00422955 0.00530828 -0.0102874 -0.021808 -0.0206566 -0.0895857 -0.0614941 -0.101866 -0.0269594 -0.0614941 -0.0631293 -0.0901737 -0.0614941 -0.101866 -0.0901737 -0.117137 -0.15743 -0.101784 -0.157098 -0.133469 -0.101784 -0.0452598 -0.133469 -0.103151 -0.157098 -0.133469 -0.161487 -0.151241 -0.133469 -0.103151 -0.151241 -0.135468 -0.0088475 -0.00063275 -0.0740186 -0.0528461 -0.103151 -0.0740186 -0.135468 -0.116862 -0.0740186 -0.0528461 -0.116862 -0.0986165 -0.0612933 -0.0497043 -0.0546309 -0.0231768 -0.0497043 -0.0620328 -0.0231768 -0.04034 0.129484 0.0456919 0.13999 0.102535 0.13999 0.102535 0.155482 0.138427 0.102535 0.0506968 0.138427 0.114296 0.0457076 0.129512 0.102555 0.140021 0.0507081 0.102555 0.11431 0.138451 0.102555 0.140021 0.138451 0.155515 0.103015 0.0438983 0.116428 0.0838085 0.116428 0.0838085 0.132937 0.111978 0.0838085 0.0568302 0.111978 0.0910318 -0.00313782 0.0164432 0.0412746 0.0388296 0.0568302 0.0412746 0.0910318 0.073346 0.0412746 0.0388296 0.073346 0.0612394 0.0164432 0.056557 0.0388296 0.0476987 0.056557 0.0998723 0.0476987 0.063294 0.0388296 0.0476987 0.0612394 0.0552394 0.0476987 0.063294 0.0552394 0.0546411 0.0617226 0.0784158 0.0550092 0.100024 0.0784158 0.072762 0.100024 0.0930737 0.0546309 0.0996564 0.0612933 0.0780218 0.0996564 0.0927318 0.0780218 0.0724065 0.0996255 0.0563463 0.063062 0.0474945 0.0563463 0.016261 0.0474945 0.0386502 0.063062 0.0474945 0.0544268 0.055048 0.0474945 0.0386502 0.055048 0.0610695 0.016261 -0.00329707 0.0386502 0.0411182 0.0386502 0.0411182 0.0610695 0.0731973 0.0411182 0.056697 0.0731973 0.090904 0.0437876 0.102931 0.0836988 0.11634 0.056697 0.0836988 0.090904 0.111871 0.0836988 0.11634 0.111871 0.132848 0.0561556 0.059413 0.0849119 0.0886713 0.059413 0.0594033 0.0886713 0.0885617 0.0849119 0.0886713 0.126517 0.131179 0.0886713 0.0885617 0.131179 0.131457 0.0594033 0.0566452 0.0885617 0.0853509 0.0566452 0.0520782 0.0853509 0.0797643 0.0885617 0.0853509 0.131457 0.128035 0.0853509 0.0797643 0.128035 0.121935 0.0521411 0.0567388 0.0798172 0.0854299 0.0567388 0.0595271 0.0854299 0.0886662 0.0798172 0.0854299 0.121979 0.1281 0.0854299 0.0886662 0.1281 0.131545 0.0595271 0.059566 0.0886662 0.0888007 0.059566 0.0563364 0.0888007 0.0850652 0.0886662 0.0888007 0.131545 0.131287 0.0888007 0.0850652 0.131287 0.126646 0.0131611 -0.0021173 0.0374746 0.019888 -0.0021173 -0.0171295 0.019888 0.0020006 0.0374746 0.019888 0.0731291 0.0521211 0.019888 0.0020006 0.0521211 0.0290304 -0.0171295 -0.0308849 0.0020006 -0.014502 -0.0308849 -0.0428652 -0.014502 -0.0286981 0.0020006 -0.014502 0.0290304 0.00635378 -0.014502 -0.0286981 0.00635378 -0.0128115 -0.127793 -0.126751 -0.0899038 -0.0791632 -0.126751 -0.0996255 -0.0791632 -0.063062 -0.0899038 -0.0791632 -0.0621524 -0.0575772 -0.0791632 -0.063062 -0.0575772 -0.0544268 -0.0544268 -0.055048 -0.0582666 -0.0687841 -0.055048 -0.0610695 -0.0687841 -0.0831533 -0.0582666 -0.0687841 -0.069243 -0.0873515 -0.0687841 -0.0831533 -0.0873515 -0.10972 -0.0610695 -0.0731973 -0.0831533 -0.100887 -0.0731973 -0.090904 -0.100887 -0.120395 -0.0831533 -0.100887 -0.10972 -0.133576 -0.100887 -0.120395 -0.133576 -0.156279 -0.102931 -0.15846 -0.11634 -0.145623 -0.15846 -0.185422 -0.145623 -0.161505 -0.11634 -0.145623 -0.132848 -0.151364 -0.145623 -0.161505 -0.151364 -0.162174 -0.185422 -0.176578 -0.161505 -0.159997 -0.176578 -0.129485 -0.159997 -0.13999 -0.161505 -0.159997 -0.162174 -0.163582 -0.159997 -0.13999 -0.163582 -0.155482 -0.0506969 0.0117169 -0.114296 -0.0851567 0.0117169 0.0824639 -0.0851567 -0.0540478 -0.162174 -0.163582 -0.180369 -0.183639 -0.163582 -0.155482 -0.183639 -0.180812 -0.180369 -0.183639 -0.216813 -0.221511 -0.183639 -0.180812 -0.221511 -0.221785 0.0824639 0.0117126 -0.0540478 -0.085163 0.0117126 -0.0507082 -0.085163 -0.11431 -0.129512 -0.176617 -0.140021 -0.160039 -0.176617 -0.185472 -0.160039 -0.16156 -0.140021 -0.160039 -0.155515 -0.163627 -0.160039 -0.16156 -0.163627 -0.162231 -0.185472 -0.158524 -0.16156 -0.145693 -0.158524 -0.103014 -0.145693 -0.116429 -0.16156 -0.145693 -0.162231 -0.151436 -0.145693 -0.116429 -0.151436 -0.132937 -0.155515 -0.163627 -0.180847 -0.183686 -0.163627 -0.162231 -0.183686 -0.180428 -0.180847 -0.183686 -0.221819 -0.221557 -0.183686 -0.180428 -0.221557 -0.21687 0.00316943 -0.0164289 -0.0412792 -0.0388219 -0.0568398 -0.0412792 -0.0910134 -0.0733477 -0.0412792 -0.0388219 -0.0733477 -0.0612475 -0.0998721 -0.127036 -0.0632938 -0.0794266 -0.127036 -0.128116 -0.0794266 -0.0902018 -0.0632938 -0.0794266 -0.0546411 -0.0578167 -0.0794266 -0.0902018 -0.0578167 -0.0624185 -0.0910134 -0.0733477 -0.120514 -0.101023 -0.0733477 -0.0612475 -0.101023 -0.0833099 -0.120514 -0.101023 -0.156385 -0.133698 -0.101023 -0.0833099 -0.133698 -0.109857 -0.0612475 -0.0552392 -0.0833099 -0.0689602 -0.0552392 -0.0546411 -0.0689602 -0.0584602 -0.0833099 -0.0689602 -0.109857 -0.0875051 -0.0689602 -0.0584602 -0.0875051 -0.0694148 -0.0431401 -0.0311606 -0.0289352 -0.014739 -0.0311606 -0.0174033 -0.014739 0.00176604 -0.0289352 -0.014739 -0.0130149 0.0061517 -0.014739 0.00176604 0.0061517 0.0288315 -0.0174033 -0.00238578 0.00176604 0.0196586 -0.00238578 0.0129016 0.0196586 0.0372535 0.00176604 0.0196586 0.0288315 0.0519271 0.0196586 0.0372535 0.0519271 0.0729423 0.0895857 0.154375 0.101866 0.138493 0.154375 0.189737 0.138493 0.161439 0.101866 0.138493 0.117137 0.14121 0.138493 0.161439 0.14121 0.157271 0.189737 0.190248 0.161439 0.167527 0.190248 0.15743 0.167527 0.157098 0.161439 0.167527 0.157271 0.163924 0.167527 0.157098 0.163924 0.161487 0.157271 0.163924 0.170779 0.177182 0.163924 0.161487 0.177182 0.177326 0.170779 0.177182 0.203248 0.209677 0.177182 0.177326 0.209677 0.210676 0.121109 0.120307 0.1525 0.150916 0.120307 0.116028 0.150916 0.145466 0.1525 0.150916 0.196312 0.194061 0.150916 0.145466 0.194061 0.187404 0.068597 0.052692 0.0914822 0.0725006 0.052692 0.0374884 0.0725006 0.053398 0.0914822 0.0725006 0.12588 0.1029 0.0725006 0.053398 0.1029 0.0779232 0.0374884 0.0240925 0.053398 0.0358728 0.0240925 0.0132712 0.0358728 0.0208197 0.053398 0.0358728 0.0779232 0.0535009 0.0358728 0.0208197 0.0535009 0.03267 -0.069164 -0.0921216 -0.0532095 -0.073084 -0.0921216 -0.126596 -0.073084 -0.103543 -0.0532095 -0.073084 -0.0379624 -0.0539357 -0.073084 -0.103543 -0.0539357 -0.0785135 -0.0379624 -0.0539357 -0.0245292 -0.0363739 -0.0539357 -0.0785135 -0.0363739 -0.0540561 -0.0245292 -0.0363739 -0.0136742 -0.0212918 -0.0363739 -0.0540561 -0.0212918 -0.0331976 -0.121937 -0.153479 -0.121119 -0.151874 -0.153479 -0.197531 -0.151874 -0.19524 -0.121119 -0.151874 -0.11681 -0.146377 -0.151874 -0.19524 -0.146377 -0.188509 -0.15824 -0.191116 -0.158006 -0.168477 -0.191116 -0.190635 -0.168477 -0.162409 -0.158006 -0.168477 -0.162567 -0.164973 -0.168477 -0.162409 -0.164973 -0.158346 -0.190635 -0.155266 -0.162409 -0.13946 -0.155266 -0.0904441 -0.13946 -0.102811 -0.162409 -0.13946 -0.158346 -0.142266 -0.13946 -0.102811 -0.142266 -0.118178 -0.162567 -0.164973 -0.178464 -0.178359 -0.164973 -0.158346 -0.178359 -0.171951 -0.178464 -0.178359 -0.21227 -0.210848 -0.178359 -0.171951 -0.210848 -0.204601 0.0420577 0.030699 -0.00507263 0.00451927 -0.0278275 -0.00507263 -0.064079 -0.040463 -0.00507263 0.00451927 -0.040463 -0.0226702 -0.064079 -0.040463 -0.0954818 -0.0712665 -0.040463 -0.0226702 -0.0712665 -0.0490156 -0.0954818 -0.0712665 -0.133397 -0.107124 -0.0712665 -0.0490156 -0.107124 -0.07952 -0.0226702 -0.0111141 -0.0490156 -0.0304916 -0.0111141 -0.00488143 -0.0304916 -0.0162692 -0.0490156 -0.0304916 -0.07952 -0.0534731 -0.0304916 -0.0162692 -0.0534731 -0.0320443 -0.0314147 -0.0428134 -0.00530828 0.00424529 -0.00530828 0.00424529 0.021808 0.0395597 0.00424529 0.0269594 0.0395597 0.0631293 0.00408695 0.0102874 0.0153996 0.029592 0.0102874 0.021808 0.029592 0.0480763 0.0153996 0.029592 0.0311121 0.0524998 0.029592 0.0480763 0.0524998 0.0785013 0.021808 0.0395597 0.0480763 0.0702774 0.0395597 0.0631293 0.0702774 0.0944328 0.0480763 0.0702774 0.0785013 0.106033 0.0702774 0.0944328 0.106033 0.132207 0.11681 0.121119 0.146377 0.151874 0.121119 0.121937 0.151874 0.153479 0.146377 0.151874 0.188509 0.19524 0.151874 0.153479 0.19524 0.197531 0.15824 0.191116 0.158006 0.168477 0.191116 0.190635 0.168477 0.162409 0.158006 0.168477 0.162567 0.164973 0.168477 0.162409 0.164973 0.158346 0.190635 0.155266 0.162409 0.13946 0.155266 0.0904441 0.13946 0.102811 0.162409 0.13946 0.158346 0.142266 0.13946 0.102811 0.142266 0.118178 0.162567 0.164973 0.178464 0.178358 0.164973 0.158346 0.178358 0.171951 0.178464 0.178358 0.21227 0.210848 0.178358 0.171951 0.210848 0.204601 -0.0420577 -0.030699 0.00507262 -0.00451927 0.0278274 0.00507262 0.064079 0.040463 0.00507262 -0.00451927 0.040463 0.0226702 0.064079 0.040463 0.0954818 0.0712665 0.040463 0.0226702 0.0712665 0.0490156 0.0954818 0.0712665 0.133397 0.107124 0.0712665 0.0490156 0.107124 0.07952 0.0226702 0.0111141 0.0490156 0.0304916 0.0111141 0.00488143 0.0304916 0.0162692 0.0490156 0.0304916 0.07952 0.0534731 0.0304916 0.0162692 0.0534731 0.0320443 0.0314147 0.0428134 0.00530828 -0.00424529 0.00530828 -0.00424529 -0.021808 -0.0395597 -0.00424529 -0.0269594 -0.0395597 -0.0631293 -0.00408695 -0.0102874 -0.0153996 -0.029592 -0.0102874 -0.021808 -0.029592 -0.0480763 -0.0153996 -0.029592 -0.0311121 -0.0524998 -0.029592 -0.0480763 -0.0524998 -0.0785013 -0.021808 -0.0395597 -0.0480763 -0.0702774 -0.0395597 -0.0631293 -0.0702774 -0.0944328 -0.0480763 -0.0702774 -0.0785013 -0.106033 -0.0702774 -0.0944328 -0.106033 -0.132207 -0.0895857 -0.154375 -0.101866 -0.138493 -0.154375 -0.189737 -0.138493 -0.161439 -0.101866 -0.138493 -0.117137 -0.14121 -0.138493 -0.161439 -0.14121 -0.157271 -0.189737 -0.190248 -0.161439 -0.167526 -0.190248 -0.15743 -0.167526 -0.157098 -0.161439 -0.167526 -0.157271 -0.163924 -0.167526 -0.157098 -0.163924 -0.161487 -0.157271 -0.163924 -0.170779 -0.177182 -0.163924 -0.161487 -0.177182 -0.177326 -0.170779 -0.177182 -0.203248 -0.209677 -0.177182 -0.177326 -0.209677 -0.210676 -0.116028 -0.145466 -0.120307 -0.150916 -0.145466 -0.187404 -0.150916 -0.194061 -0.120307 -0.150916 -0.121109 -0.1525 -0.150916 -0.194061 -0.1525 -0.196312 -0.0132712 -0.0208197 -0.0240925 -0.0358728 -0.0208197 -0.03267 -0.0358728 -0.0535009 -0.0240925 -0.0358728 -0.0374884 -0.053398 -0.0358728 -0.0535009 -0.053398 -0.0779232 -0.0374884 -0.053398 -0.052692 -0.0725006 -0.053398 -0.0779232 -0.0725006 -0.1029 -0.052692 -0.0725006 -0.068597 -0.0914822 -0.0725006 -0.1029 -0.0914822 -0.12588 0.0136742 0.0245292 0.0212918 0.0363739 0.0245292 0.0379624 0.0363739 0.0539357 0.0212918 0.0363739 0.0331976 0.0540561 0.0363739 0.0539357 0.0540561 0.0785135 0.0379624 0.0532094 0.0539357 0.073084 0.0532094 0.069164 0.073084 0.0921216 0.0539357 0.073084 0.0785135 0.103543 0.073084 0.0921216 0.103543 0.126596 0.102931 0.15846 0.11634 0.145623 0.15846 0.185422 0.145623 0.161505 0.11634 0.145623 0.132848 0.151364 0.145623 0.161505 0.151364 0.162174 0.185422 0.176578 0.161505 0.159997 0.176578 0.129484 0.159997 0.13999 0.161505 0.159997 0.162174 0.163582 0.159997 0.13999 0.163582 0.155482 0.0506968 -0.0117169 0.114296 0.0851567 -0.0117169 -0.0824639 0.0851567 0.0540477 0.162174 0.163582 0.180369 0.183639 0.163582 0.155482 0.183639 0.18081