# vtk DataFile Version 3.0
#This file was generated by the deal.II library on 2015/4/21 at 16:36:14
ASCII
DATASET UNSTRUCTURED_GRID

POINTS 7736 double
1 0 0
1 0.25 0
0.8125 0 0
0.807924 0.198549 0
1 0.25 0
1 0.5 0
0.807924 0.198549 0
0.803347 0.397097 0
0.8125 0 0
0.807924 0.198549 0
0.625 0 0
0.615847 0.147097 0
0.807924 0.198549 0
0.803347 0.397097 0
0.615847 0.147097 0
0.606694 0.294194 0
1 0.5 0
1 0.75 0
0.803347 0.397097 0
0.798771 0.595646 0
1 0.75 0
1 1 0
0.798771 0.595646 0
0.794194 0.794194 0
0.803347 0.397097 0
0.798771 0.595646 0
0.606694 0.294194 0
0.597541 0.441291 0
0.798771 0.595646 0
0.794194 0.794194 0
0.597541 0.441291 0
0.588388 0.588388 0
0.625 0 0
0.615847 0.147097 0
0.4375 0 0
0.423771 0.0956456 0
0.597541 0.441291 0
0.588388 0.588388 0
0.396312 0.286937 0
0.382583 0.382583 0
1 1 0
0.75 1 0
0.794194 0.794194 0
0.595646 0.798771 0
0.75 1 0
0.5 1 0
0.595646 0.798771 0
0.397097 0.803347 0
0.794194 0.794194 0
0.595646 0.798771 0
0.588388 0.588388 0
0.441291 0.597541 0
0.595646 0.798771 0
0.397097 0.803347 0
0.441291 0.597541 0
0.294194 0.606694 0
0.5 1 0
0.25 1 0
0.397097 0.803347 0
0.198549 0.807924 0
0.25 1 0
6.12323e-17 1 0
0.198549 0.807924 0
4.97513e-17 0.8125 0
0.397097 0.803347 0
0.198549 0.807924 0
0.294194 0.606694 0
0.147097 0.615847 0
0.198549 0.807924 0
4.97513e-17 0.8125 0
0.147097 0.615847 0
3.82702e-17 0.625 0
0.588388 0.588388 0
0.441291 0.597541 0
0.382583 0.382583 0
0.286937 0.396312 0
0.147097 0.615847 0
3.82702e-17 0.625 0
0.0956456 0.423771 0
2.67891e-17 0.4375 0
6.12323e-17 1 0
-0.25 1 0
4.97513e-17 0.8125 0
-0.198549 0.807924 0
-0.25 1 0
-0.5 1 0
-0.198549 0.807924 0
-0.397097 0.803347 0
4.97513e-17 0.8125 0
-0.198549 0.807924 0
3.82702e-17 0.625 0
-0.147097 0.615847 0
-0.198549 0.807924 0
-0.397097 0.803347 0
-0.147097 0.615847 0
-0.294194 0.606694 0
-0.5 1 0
-0.75 1 0
-0.397097 0.803347 0
-0.595646 0.798771 0
-0.397097 0.803347 0
-0.595646 0.798771 0
-0.294194 0.606694 0
-0.441291 0.597541 0
-0.595646 0.798771 0
-0.794194 0.794194 0
-0.441291 0.597541 0
-0.588388 0.588388 0
3.82702e-17 0.625 0
-0.147097 0.615847 0
2.67891e-17 0.4375 0
-0.0956456 0.423771 0
-0.441291 0.597541 0
-0.588388 0.588388 0
-0.286937 0.396312 0
-0.382583 0.382583 0
-0.286937 0.396312 0
-0.382583 0.382583 0
-0.132583 0.195083 0
-0.176777 0.176777 0
-0.588388 0.588388 0
-0.597541 0.441291 0
-0.382583 0.382583 0
-0.396312 0.286937 0
-0.382583 0.382583 0
-0.396312 0.286937 0
-0.176777 0.176777 0
-0.195083 0.132583 0
-0.615847 0.147097 0
-0.625 7.65404e-17 0
-0.423771 0.0956456 0
-0.4375 5.35783e-17 0
-0.625 7.65404e-17 0
-0.615847 -0.147097 0
-0.4375 5.35783e-17 0
-0.423771 -0.0956456 0
-0.606694 -0.294194 0
-0.597541 -0.441291 0
-0.410041 -0.191291 0
-0.396312 -0.286937 0
-0.597541 -0.441291 0
-0.588388 -0.588388 0
-0.396312 -0.286937 0
-0.382583 -0.382583 0
-0.410041 -0.191291 0
-0.396312 -0.286937 0
-0.213388 -0.0883883 0
-0.195083 -0.132583 0
-0.588388 -0.588388 0
-0.441291 -0.597541 0
-0.382583 -0.382583 0
-0.286937 -0.396312 0
-0.441291 -0.597541 0
-0.294194 -0.606694 0
-0.286937 -0.396312 0
-0.191291 -0.410041 0
-0.286937 -0.396312 0
-0.191291 -0.410041 0
-0.132583 -0.195083 0
-0.0883883 -0.213388 0
-0.147097 -0.615847 0
-1.14811e-16 -0.625 0
-0.0956456 -0.423771 0
-8.03674e-17 -0.4375 0
-1.14811e-16 -0.625 0
0.147097 -0.615847 0
-8.03674e-17 -0.4375 0
0.0956456 -0.423771 0
0.441291 -0.597541 0
0.588388 -0.588388 0
0.286937 -0.396312 0
0.382583 -0.382583 0
0.286937 -0.396312 0
0.382583 -0.382583 0
0.132583 -0.195083 0
0.176777 -0.176777 0
1 -0.75 0
1 -0.5 0
0.798771 -0.595646 0
0.803347 -0.397097 0
0.794194 -0.794194 0
0.798771 -0.595646 0
0.588388 -0.588388 0
0.597541 -0.441291 0
0.798771 -0.595646 0
0.803347 -0.397097 0
0.597541 -0.441291 0
0.606694 -0.294194 0
1 -0.5 0
1 -0.25 0
0.803347 -0.397097 0
0.807924 -0.198549 0
1 -0.25 0
1 0 0
0.807924 -0.198549 0
0.8125 0 0
0.803347 -0.397097 0
0.807924 -0.198549 0
0.606694 -0.294194 0
0.615847 -0.147097 0
0.807924 -0.198549 0
0.8125 0 0
0.615847 -0.147097 0
0.625 0 0
0.588388 -0.588388 0
0.597541 -0.441291 0
0.382583 -0.382583 0
0.396312 -0.286937 0
0.382583 -0.382583 0
0.396312 -0.286937 0
0.176777 -0.176777 0
0.195083 -0.132583 0
0.615847 -0.147097 0
0.625 0 0
0.423771 -0.0956456 0
0.4375 0 0
2.625 0 0
2.61585 0.147097 0
2.4375 0 0
2.42377 0.0956456 0
2.60669 0.294194 0
2.59754 0.441291 0
2.41004 0.191291 0
2.39631 0.286937 0
2.59754 0.441291 0
2.58839 0.588388 0
2.39631 0.286937 0
2.38258 0.382583 0
2.75 1 0
2.5 1 0
2.59565 0.798771 0
2.3971 0.803347 0
2.79419 0.794194 0
2.59565 0.798771 0
2.58839 0.588388 0
2.44129 0.597541 0
2.59565 0.798771 0
2.3971 0.803347 0
2.44129 0.597541 0
2.29419 0.606694 0
2.5 1 0
2.25 1 0
2.3971 0.803347 0
2.19855 0.807924 0
2.25 1 0
2 1 0
2.19855 0.807924 0
2 0.8125 0
2.3971 0.803347 0
2.19855 0.807924 0
2.29419 0.606694 0
2.1471 0.615847 0
2.19855 0.807924 0
2 0.8125 0
2.1471 0.615847 0
2 0.625 0
2.58839 0.588388 0
2.44129 0.597541 0
2.38258 0.382583 0
2.28694 0.396312 0
2.44129 0.597541 0
2.29419 0.606694 0
2.28694 0.396312 0
2.19129 0.410041 0
2.1471 0.615847 0
2 0.625 0
2.09565 0.423771 0
2 0.4375 0
2 1 0
1.75 1 0
2 0.8125 0
1.80145 0.807924 0
1.75 1 0
1.5 1 0
1.80145 0.807924 0
1.6029 0.803347 0
2 0.8125 0
1.80145 0.807924 0
2 0.625 0
1.8529 0.615847 0
1.80145 0.807924 0
1.6029 0.803347 0
1.8529 0.615847 0
1.70581 0.606694 0
1.5 1 0
1.25 1 0
1.6029 0.803347 0
1.40435 0.798771 0
1.25 1 0
1 1 0
1.40435 0.798771 0
1.20581 0.794194 0
1.6029 0.803347 0
1.40435 0.798771 0
1.70581 0.606694 0
1.55871 0.597541 0
1.40435 0.798771 0
1.20581 0.794194 0
1.55871 0.597541 0
1.41161 0.588388 0
2 0.625 0
1.8529 0.615847 0
2 0.4375 0
1.90435 0.423771 0
1.55871 0.597541 0
1.41161 0.588388 0
1.71306 0.396312 0
1.61742 0.382583 0
1.71306 0.396312 0
1.61742 0.382583 0
1.86742 0.195083 0
1.82322 0.176777 0
1 0 0
1.1875 7.65404e-18 0
1 0.25 0
1.19208 0.198549 0
1.1875 7.65404e-18 0
1.375 1.53081e-17 0
1.19208 0.198549 0
1.38415 0.147097 0
1 0.25 0
1.19208 0.198549 0
1 0.5 0
1.19665 0.397097 0
1.19208 0.198549 0
1.38415 0.147097 0
1.19665 0.397097 0
1.39331 0.294194 0
1.375 1.53081e-17 0
1.5625 2.29621e-17 0
1.38415 0.147097 0
1.57623 0.0956456 0
1 0.5 0
1.19665 0.397097 0
1 0.75 0
1.20123 0.595646 0
1.19665 0.397097 0
1.39331 0.294194 0
1.20123 0.595646 0
1.40246 0.441291 0
1 0.75 0
1.20123 0.595646 0
1 1 0
1.20581 0.794194 0
1.20123 0.595646 0
1.40246 0.441291 0
1.20581 0.794194 0
1.41161 0.588388 0
1.40246 0.441291 0
1.60369 0.286937 0
1.41161 0.588388 0
1.61742 0.382583 0
1.60369 0.286937 0
1.80492 0.132583 0
1.61742 0.382583 0
1.82322 0.176777 0
1.20581 -0.794194 0
1.41161 -0.588388 0
1.20123 -0.595646 0
1.40246 -0.441291 0
1 -0.75 0
1.20123 -0.595646 0
1 -0.5 0
1.19665 -0.397097 0
1.20123 -0.595646 0
1.40246 -0.441291 0
1.19665 -0.397097 0
1.39331 -0.294194 0
1.41161 -0.588388 0
1.61742 -0.382583 0
1.40246 -0.441291 0
1.60369 -0.286937 0
1.40246 -0.441291 0
1.60369 -0.286937 0
1.39331 -0.294194 0
1.58996 -0.191291 0
1 -0.5 0
1.19665 -0.397097 0
1 -0.25 0
1.19208 -0.198549 0
1.19665 -0.397097 0
1.39331 -0.294194 0
1.19208 -0.198549 0
1.38415 -0.147097 0
1 -0.25 0
1.19208 -0.198549 0
1 0 0
1.1875 7.65404e-18 0
1.19208 -0.198549 0
1.38415 -0.147097 0
1.1875 7.65404e-18 0
1.375 1.53081e-17 0
1.38415 -0.147097 0
1.57623 -0.0956456 0
1.375 1.53081e-17 0
1.5625 2.29621e-17 0
1.41161 -0.588388 0
1.55871 -0.597541 0
1.61742 -0.382583 0
1.71306 -0.396312 0
1.55871 -0.597541 0
1.70581 -0.606694 0
1.71306 -0.396312 0
1.80871 -0.410041 0
1.71306 -0.396312 0
1.80871 -0.410041 0
1.86742 -0.195083 0
1.91161 -0.213388 0
1.8529 -0.615847 0
2 -0.625 0
1.90435 -0.423771 0
2 -0.4375 0
2 -0.625 0
2.1471 -0.615847 0
2 -0.4375 0
2.09565 -0.423771 0
2.44129 -0.597541 0
2.58839 -0.588388 0
2.28694 -0.396312 0
2.38258 -0.382583 0
2.28694 -0.396312 0
2.38258 -0.382583 0
2.13258 -0.195083 0
2.17678 -0.176777 0
2.58839 -0.588388 0
2.59754 -0.441291 0
2.38258 -0.382583 0
2.39631 -0.286937 0
2.38258 -0.382583 0
2.39631 -0.286937 0
2.17678 -0.176777 0
2.19508 -0.132583 0
2.61585 -0.147097 0
2.625 0 0
2.42377 -0.0956456 0
2.4375 0 0
1 2 0
1 2.25 0
0.8125 2 0
0.807924 2.19855 0
1 2.25 0
1 2.5 0
0.807924 2.19855 0
0.803347 2.3971 0
0.8125 2 0
0.807924 2.19855 0
0.625 2 0
0.615847 2.1471 0
0.807924 2.19855 0
0.803347 2.3971 0
0.615847 2.1471 0
0.606694 2.29419 0
1 2.5 0
1 2.75 0
0.803347 2.3971 0
0.798771 2.59565 0
0.803347 2.3971 0
0.798771 2.59565 0
0.606694 2.29419 0
0.597541 2.44129 0
0.798771 2.59565 0
0.794194 2.79419 0
0.597541 2.44129 0
0.588388 2.58839 0
0.625 2 0
0.615847 2.1471 0
0.4375 2 0
0.423771 2.09565 0
0.606694 2.29419 0
0.597541 2.44129 0
0.410041 2.19129 0
0.396312 2.28694 0
0.597541 2.44129 0
0.588388 2.58839 0
0.396312 2.28694 0
0.382583 2.38258 0
0.588388 2.58839 0
0.441291 2.59754 0
0.382583 2.38258 0
0.286937 2.39631 0
0.441291 2.59754 0
0.294194 2.60669 0
0.286937 2.39631 0
0.191291 2.41004 0
0.286937 2.39631 0
0.191291 2.41004 0
0.132583 2.19508 0
0.0883883 2.21339 0
0.147097 2.61585 0
3.82702e-17 2.625 0
0.0956456 2.42377 0
2.67891e-17 2.4375 0
3.82702e-17 2.625 0
-0.147097 2.61585 0
2.67891e-17 2.4375 0
-0.0956456 2.42377 0
-0.441291 2.59754 0
-0.588388 2.58839 0
-0.286937 2.39631 0
-0.382583 2.38258 0
-0.286937 2.39631 0
-0.382583 2.38258 0
-0.132583 2.19508 0
-0.176777 2.17678 0
-0.588388 2.58839 0
-0.597541 2.44129 0
-0.382583 2.38258 0
-0.396312 2.28694 0
-0.382583 2.38258 0
-0.396312 2.28694 0
-0.176777 2.17678 0
-0.195083 2.13258 0
-0.615847 2.1471 0
-0.625 2 0
-0.423771 2.09565 0
-0.4375 2 0
-0.625 2 0
-0.615847 1.8529 0
-0.4375 2 0
-0.423771 1.90435 0
-0.606694 1.70581 0
-0.597541 1.55871 0
-0.410041 1.80871 0
-0.396312 1.71306 0
-0.597541 1.55871 0
-0.588388 1.41161 0
-0.396312 1.71306 0
-0.382583 1.61742 0
6.12323e-17 1 0
3.44432e-17 1.1875 0
-0.25 1 0
-0.198549 1.19208 0
3.44432e-17 1.1875 0
7.65404e-18 1.375 0
-0.198549 1.19208 0
-0.147097 1.38415 0
-0.25 1 0
-0.198549 1.19208 0
-0.5 1 0
-0.397097 1.19665 0
-0.198549 1.19208 0
-0.147097 1.38415 0
-0.397097 1.19665 0
-0.294194 1.39331 0
7.65404e-18 1.375 0
[...]
POINT_DATA 7736
SCALARS solution double 1
LOOKUP_TABLE default
-0.0284794 -0.00822428 0.000210016 0.0162175 -0.00822428 0.00327178 0.0162175 0.0216739 0.000210016 0.0162175 0.0364395 0.053543 0.0162175 0.0216739 0.053543 0.0567381 0.00327178 0.00460273 0.0216739 0.0188507 0.00460273 2.96247e-08 0.0188507 0.0120186 0.0216739 0.0188507 0.0567381 0.0499161 0.0188507 0.0120186 0.0499161 0.0382205 0.0364395 0.053543 0.0966413 0.121196 0.0499161 0.0382205 0.117107 0.100287 2.96247e-08 0.00501154 0.0120186 0.0191722 0.00501154 0.00407965 0.0191722 0.0222995 0.0120186 0.0191722 0.0382205 0.0501515 0.0191722 0.0222995 0.0501515 0.0571977 0.00407965 -0.00704258 0.0222995 0.0171155 -0.00704258 -0.0270046 0.0171155 0.00131953 0.0222995 0.0171155 0.0571977 0.0542058 0.0171155 0.00131953 0.0542058 0.037267 0.0382205 0.0501515 0.100287 0.11728 0.0542058 0.037267 0.121688 0.0972612 -0.0270046 -0.0472034 0.00131953 -0.020366 -0.0472034 -0.0585021 -0.020366 -0.0428828 0.00131953 -0.020366 0.037267 0.0129577 -0.020366 -0.0428828 0.0129577 -0.0156026 -0.0585021 -0.0573049 -0.0428828 -0.0657178 -0.0428828 -0.0657178 -0.0156026 -0.0396987 -0.0657178 -0.111687 -0.0396987 -0.0568556 0.037267 0.0129577 0.0972612 0.0689949 -0.0396987 -0.0568556 -0.00947884 -0.039599 -0.00947884 -0.039599 0.382683 1.74393e-16 -0.0568556 -0.0526643 -0.039599 -0.0701551 -0.039599 -0.0701551 1.74393e-16 -0.382683 -0.0893181 -0.125681 -0.147905 -0.179944 -0.125681 -0.150667 -0.179944 -0.205268 -0.144301 -0.108177 -0.209149 -0.198889 -0.108177 -0.0573843 -0.198889 -0.17715 -0.209149 -0.198889 -0.947548 -0.88328 -0.0573843 -0.108229 -0.17715 -0.198956 -0.108229 -0.144424 -0.198956 -0.209285 -0.198956 -0.209285 -0.88328 -0.947548 -0.150877 -0.126001 -0.205483 -0.180245 -0.126001 -0.0896836 -0.180245 -0.148293 -0.0533942 -0.0577432 -0.0707724 -0.0402875 -0.0707724 -0.0402875 -0.382683 -5.2318e-16 -0.0586096 -0.0600049 -0.0668647 -0.044099 -0.112724 -0.0668647 -0.0577432 -0.040629 -0.0668647 -0.044099 -0.040629 -0.0165475 -0.0600049 -0.0487908 -0.044099 -0.0215782 -0.0487908 -0.0284794 -0.0215782 0.000210016 -0.044099 -0.0215782 -0.0165475 0.012043 -0.0215782 0.000210016 0.012043 0.0364395 -0.0577432 -0.040629 -0.0402875 -0.0102109 -0.0402875 -0.0102109 -5.2318e-16 0.382683 0.012043 0.0364395 0.0683045 0.0966413 0.110797 0.146281 0.162214 0.193 0.150264 0.128153 0.199129 0.189784 0.128153 0.0961421 0.189784 0.169323 0.0573049 0.0585021 0.0616968 0.0752444 0.0104262 0.0616968 0.0961421 0.109253 0.0616968 0.0752444 0.109253 0.115111 0.0585021 0.0472034 0.0752444 0.0715754 0.0472034 0.0270046 0.0715754 0.0551663 0.0752444 0.0715754 0.115111 0.109839 0.0715754 0.0551663 0.109839 0.0905094 0.0961421 0.109253 0.169323 0.181381 0.109253 0.115111 0.181381 0.185277 0.109839 0.0905094 0.177389 0.149171 0.0270046 0.00704261 0.0551663 0.0333332 0.00704261 -0.0040796 0.0333332 0.0134652 0.0551663 0.0333332 0.0905094 0.0642579 0.0333332 0.0134652 0.0642579 0.0349163 -0.0040796 -0.00501149 0.0134652 0.00199827 -0.00501149 2.96247e-08 0.00199827 -0.000339643 0.0134652 0.00199827 0.0349163 0.0120154 0.00199827 -0.000339643 0.0120154 -0.000685187 0.0905094 0.0642579 0.149171 0.117064 0.0120154 -0.000685187 0.033143 -0.000982775 0.033143 -0.000982775 0.382683 -4.89859e-16 -0.0284794 -0.0571182 -0.00822428 -0.0349968 -0.0571182 -0.0931272 -0.0349968 -0.0665028 -0.00822428 -0.0349968 0.00327178 -0.0147946 -0.0349968 -0.0665028 -0.0147946 -0.03681 -0.0931272 -0.15287 -0.0665028 -0.120031 0.00327178 -0.0147946 0.00460273 -0.00300005 -0.0147946 -0.03681 -0.00300005 -0.0136257 0.00460273 -0.00300005 2.96247e-08 -0.000339643 -0.00300005 -0.0136257 -0.000339643 -0.000685187 -0.0136257 -0.0353164 -0.000685187 -0.000982775 -0.0353164 -0.382683 -0.000982775 -4.89859e-16 -0.0119727 -0.0982678 -0.0634694 -0.111717 -0.0586096 -0.0634694 -0.0600049 -0.0772354 -0.0634694 -0.111717 -0.0772354 -0.117896 -0.0982678 -0.172488 -0.111717 -0.185433 -0.111717 -0.185433 -0.117896 -0.190301 -0.0600049 -0.0772354 -0.0487908 -0.073665 -0.0772354 -0.117896 -0.073665 -0.112733 -0.0487908 -0.073665 -0.0284794 -0.0571182 -0.073665 -0.112733 -0.0571182 -0.0931272 -0.112733 -0.182018 -0.0931272 -0.15287 -0.0982678 -0.130621 -0.172488 -0.194883 -0.130621 -0.152723 -0.194883 -0.201406 -0.194883 -0.201406 -0.88328 -0.947548 -0.148416 -0.113081 -0.195214 -0.165526 -0.113081 -0.0653414 -0.165526 -0.127316 -0.00736842 -0.000951615 -0.0350522 -0.00114548 -0.0350522 -0.00114548 -0.382683 -4.89859e-16 -0.000951615 0.00533497 -0.00114548 0.0325773 -0.00114548 0.0325773 -4.89859e-16 0.382683 0.0630344 0.110797 0.12421 0.162214 0.0284794 0.0487908 0.0571182 0.073665 0.0487908 0.0600049 0.073665 0.0772354 0.0571182 0.073665 0.0931271 0.112733 0.073665 0.0772354 0.112733 0.117896 0.0600049 0.0586096 0.0772354 0.0634694 0.0772354 0.0634694 0.117896 0.111717 0.0634694 0.0119728 0.111717 0.0982679 0.0931271 0.112733 0.15287 0.182018 0.117896 0.111717 0.190301 0.185433 0.111717 0.0982679 0.185433 0.172488 0.0982679 0.130621 0.172488 0.194883 0.130621 0.152723 0.194883 0.201406 0.194883 0.201406 0.88328 0.947548 0.148416 0.113081 0.195214 0.165526 0.113081 0.0653413 0.165526 0.127316 0.00736823 0.000951425 0.035052 0.00114528 0.035052 0.00114528 0.382683 -4.89859e-16 0.000951425 -0.00533517 0.00114528 -0.0325775 0.00114528 -0.0325775 -4.89859e-16 -0.382683 -0.0630346 -0.110797 -0.12421 -0.162215 -0.110797 -0.146281 -0.162215 -0.193 -0.150264 -0.128153 -0.199129 -0.189784 -0.128153 -0.0961422 -0.189784 -0.169323 -0.0270046 -0.0551663 -0.0472034 -0.0715754 -0.0551663 -0.0905095 -0.0715754 -0.109839 -0.0472034 -0.0715754 -0.0585021 -0.0752444 -0.0715754 -0.109839 -0.0752444 -0.115112 -0.0905095 -0.149171 -0.109839 -0.177389 -0.0585021 -0.0752444 -0.0573049 -0.0616968 -0.0752444 -0.115112 -0.0616968 -0.109253 -0.0616968 -0.109253 -0.0104262 -0.0961422 -0.115112 -0.185278 -0.109253 -0.181381 -0.109253 -0.181381 -0.0961422 -0.169323 2.96247e-08 0.000339686 0.00501154 -0.00199824 0.000339686 0.000685188 -0.00199824 -0.0120155 0.00501154 -0.00199824 0.00407965 -0.0134652 -0.00199824 -0.0120155 -0.0134652 -0.0349163 0.000685188 0.000982719 -0.0120155 -0.0331431 0.000982719 -2.26622e-15 -0.0331431 -0.382683 0.00407965 -0.0134652 -0.00704258 -0.0333332 -0.0134652 -0.0349163 -0.0333332 -0.064258 -0.00704258 -0.0333332 -0.0270046 -0.0551663 -0.0333332 -0.064258 -0.0551663 -0.0905095 -0.064258 -0.117064 -0.0905095 -0.149171 2.96247e-08 -0.00460267 0.000339686 0.00300009 -0.00460267 -0.00327174 0.00300009 0.0147946 0.000339686 0.00300009 0.000685188 0.0136257 0.00300009 0.0147946 0.0136257 0.03681 -0.00327174 0.0082243 0.0147946 0.0349968 0.0082243 0.0284794 0.0349968 0.0571182 0.0147946 0.0349968 0.03681 0.0665028 0.0349968 0.0571182 0.0665028 0.0931271 0.000685188 0.0136257 0.000982719 0.0353163 0.000982719 0.0353163 -2.26622e-15 0.382683 0.0665028 0.0931271 0.120031 0.15287 0.125681 0.150666 0.179944 0.205268 0.144301 0.108177 0.209149 0.198889 0.108177 0.0573841 0.198889 0.177149 0.209149 0.198889 0.947548 0.88328 0.0573841 0.108228 0.177149 0.198955 0.108228 0.144424 0.198955 0.209285 0.198955 0.209285 0.88328 0.947548 0.150877 0.126 0.205483 0.180247 0.126 0.0897685 0.180247 0.148301 0.0533935 0.0577431 0.0707707 0.0402865 0.0707707 0.0402865 0.382683 -9.79717e-16 0.0284794 -0.000210049 0.0487908 0.0215781 -0.000210049 -0.0364395 0.0215781 -0.0120431 0.0487908 0.0215781 0.0600049 0.0440989 0.0215781 -0.0120431 0.0440989 0.0165472 -0.0364395 -0.0966413 -0.0120431 -0.0683047 0.0600049 0.0440989 0.0586096 0.0668648 0.0440989 0.0165472 0.0668648 0.0406287 0.0668648 0.0406287 0.112724 0.0577431 0.0406287 0.0102104 0.0577431 0.0402865 0.0102104 -0.382683 0.0402865 -9.79717e-16 2.96247e-08 -0.0120185 -0.00460267 -0.0188506 -0.0120185 -0.0382204 -0.0188506 -0.049916 -0.00460267 -0.0188506 -0.00327174 -0.0216738 -0.0188506 -0.049916 -0.0216738 -0.056738 -0.0382204 -0.100287 -0.049916 -0.117107 -0.00327174 -0.0216738 0.0082243 -0.0162174 -0.0216738 -0.056738 -0.0162174 -0.053543 0.0082243 -0.0162174 0.0284794 -0.000210049 -0.0162174 -0.053543 -0.000210049 -0.0364395 -0.053543 -0.121196 -0.0364395 -0.0966413 0.0270046 -0.00131948 0.00704261 -0.0171154 -0.00131948 -0.0372669 -0.0171154 -0.0542057 0.00704261 -0.0171154 -0.0040796 -0.0222994 -0.0171154 -0.0542057 -0.0222994 -0.0571975 -0.0372669 -0.0972611 -0.0542057 -0.121688 -0.0040796 -0.0222994 -0.00501149 -0.0191722 -0.0222994 -0.0571975 -0.0191722 -0.0501514 -0.00501149 -0.0191722 2.96247e-08 -0.0120185 -0.0191722 -0.0501514 -0.0120185 -0.0382204 -0.0501514 -0.11728 -0.0382204 -0.100287 0.111687 0.0568557 0.0657178 0.0396988 0.0573049 0.0657178 0.0585021 0.0428828 0.0657178 0.0396988 0.0428828 0.0156026 0.0568557 0.039599 0.0396988 0.0094789 0.039599 -9.79717e-16 0.0094789 -0.382683 0.0585021 0.0428828 0.0472034 0.020366 0.0428828 0.0156026 0.020366 -0.0129577 0.0472034 0.020366 0.0270046 -0.00131948 0.020366 -0.0129577 -0.00131948 -0.0372669 -0.0129577 -0.0689948 -0.0372669 -0.0972611 0.0568557 0.0526644 0.039599 0.0701551 0.039599 0.0701551 -9.79717e-16 0.382683 0.0893181 0.125681 0.147904 0.179944 0.0966413 0.109836 0.192505 0.217079 0.109836 0.121196 0.217079 0.231905 0.217079 0.231905 0.996695 0.9868 0.117107 0.108131 0.217913 0.199552 0.108131 0.100287 0.199552 0.188632 0.217913 0.199552 0.88328 0.842271 0.199552 0.188632 0.842271 0.795693 0.100287 0.108216 0.188632 0.199609 0.108216 0.11728 0.199609 0.218031 0.188632 0.199609 0.795693 0.842271 0.199609 0.218031 0.842271 0.88328 0.121688 0.110396 0.232263 0.217493 0.110396 0.0972612 0.217493 0.192965 0.232263 0.217493 0.9868 0.996695 -0.0573049 -0.0493768 -0.0711636 -0.0890484 -0.0711636 -0.0890484 -0.0657178 -0.0824945 -0.0890484 -0.128866 -0.0824945 -0.111687 0.0972612 0.0840002 0.192965 0.192623 0.0840002 0.0689949 0.192623 0.177294 0.192623 0.177294 0.980785 0.92388 -0.128866 -0.197282 -0.111687 -0.10945 -0.707107 -1.01064e-15 -0.109646 -0.00690852 -0.109646 -0.00690852 -0.0522454 -0.0225551 -0.085873 -0.0522454 -0.058518 -0.0472015 -0.0522454 -0.0225551 -0.0472015 -0.0418636 -0.058518 -0.0472015 -0.0526643 -0.0546851 -0.0472015 -0.0418636 -0.0546851 -0.0614069 -1.01064e-15 0.707107 -0.00690852 0.0754913 -0.00690852 0.0754913 -0.0225551 -0.00978318 0.707107 1.13311e-15 0.0351376 -0.083638 0.0351376 -0.083638 -0.0517166 -0.0980125 -0.0225551 -0.00978318 -0.0418636 -0.0460075 -0.00978318 -0.019878 -0.0460075 -0.0604396 -0.0418636 -0.0460075 -0.0614069 -0.0730626 -0.0460075 -0.0604396 -0.0730626 -0.0893181 -0.019878 -0.0517166 -0.0604396 -0.0834142 -0.0517166 -0.0980125 -0.0834142 -0.110207 -0.0604396 -0.0834142 -0.0893181 -0.10754 -0.0834142 -0.110207 -0.10754 -0.125681 -0.147905 -0.16483 -0.251381 -0.271834 -0.16483 -0.179944 -0.271834 -0.277733 -0.251381 -0.271834 -0.92388 -0.980785 1.13311e-15 -0.707107 -0.083638 -0.197066 -0.083638 -0.197066 -0.0980125 -0.142267 -0.707107 -3.67394e-16 -0.214667 -0.0994164 -0.214667 -0.0994164 -0.155967 -0.116501 -3.67394e-16 0.707107 -0.0994164 0.0725332 0.707107 1 0.0725332 0.27033 -0.0994164 0.0725332 -0.116501 -0.05003 -0.116501 -0.05003 -0.128113 -0.0966432 -0.05003 0.0389988 -0.0966432 -0.0538524 -0.128113 -0.0966432 -0.144301 -0.128957 -0.0966432 -0.0538524 -0.128957 -0.108177 -0.179944 -0.194099 -0.277733 -0.306631 -0.194099 -0.205268 -0.306631 -0.330551 -0.306631 -0.330551 -0.996695 -0.9868 -0.198889 -0.186722 -0.335586 -0.303194 -0.186722 -0.17715 -0.303194 -0.278899 -0.335586 -0.303194 -0.88328 -0.842271 -0.303194 -0.278899 -0.842271 -0.795693 1 0.707107 0.270324 0.0725059 0.707107 -3.67394e-16 0.0725059 -0.0994926 0.0725059 -0.0994926 -0.0500892 -0.116599 0.0389718 -0.0500892 -0.0538947 -0.096718 -0.0500892 -0.116599 -0.096718 -0.128225 -0.0538947 -0.096718 -0.108229 -0.129042 -0.096718 -0.128225 -0.129042 -0.144424 -3.67394e-16 -0.707107 -0.0994926 -0.214791 -0.0994926 -0.214791 -0.116599 -0.156107 -0.707107 -1.53143e-15 -0.197264 -0.0839027 -0.197264 -0.0839027 -0.142503 -0.0983099 -0.17715 -0.186753 -0.278899 -0.303221 -0.186753 -0.198956 -0.303221 -0.335643 -0.278899 -0.303221 -0.795693 -0.842271 -0.303221 -0.335643 -0.842271 -0.88328 -0.205483 -0.194357 -0.330734 -0.306847 -0.194357 -0.180245 -0.306847 -0.277977 -0.330734 -0.306847 -0.9868 -0.996695 -1.53143e-15 0.707107 -0.0839027 0.0347645 -0.0839027 0.0347645 -0.0983099 -0.0520898 0.707107 7.65714e-16 0.0749819 -0.00750235 0.0749819 -0.00750235 -0.0102079 -0.0231211 -0.0983099 -0.0520898 -0.110526 -0.0838145 -0.0520898 -0.0204436 -0.0838145 -0.0609422 -0.110526 -0.0838145 -0.126001 -0.107936 -0.0838145 -0.0609422 -0.107936 -0.0896836 7.65714e-16 -0.707107 -0.00750235 -0.110329 -0.00750235 -0.110329 -0.0231211 -0.0529515 -0.198213 -0.129909 -0.110377 -0.112724 -0.0231211 -0.0529515 -0.0424431 -0.0478937 -0.0529515 -0.0866865 -0.0478937 -0.0592952 -0.0424431 -0.0478937 -0.0620332 -0.0553415 -0.0478937 -0.0592952 -0.0553415 -0.0533942 -0.180245 -0.16518 -0.277977 -0.272098 -0.16518 -0.148293 -0.272098 -0.25167 -0.272098 -0.25167 -0.980785 -0.92388 -0.050515 -0.0586096 -0.0901993 -0.0724012 -0.129909 -0.0901993 -0.112724 -0.0835893 -0.0901993 -0.0724012 -0.0835893 -0.0668647 0.0683045 0.0833394 0.176803 0.192151 0.0833394 0.0966413 0.192151 0.192505 0.176803 0.192151 0.92388 0.980785 -7.34788e-16 0.707107 0.072574 0.195978 0.072574 0.195978 0.0855347 0.138104 0.707107 8.57253e-16 0.231039 0.133604 0.231039 0.133604 0.169883 0.143606 8.57253e-16 -0.707107 0.133604 0.0111352 0.133604 0.0111352 0.143606 0.0999894 -0.0853935 -0.0249067 0.0208386 0.0104262 0.143606 0.0999894 0.144743 0.125335 0.0999894 0.0536533 0.125335 0.100215 0.144743 0.125335 0.150264 0.141529 0.125335 0.100215 0.141529 0.128153 0.0536533 0.0208386 0.100215 0.075268 0.0208386 0.0104262 0.075268 0.0560461 0.100215 0.075268 0.128153 0.11185 0.075268 0.0560461 0.11185 0.0961421 0.162214 0.179092 0.252228 0.278764 0.179092 0.193 0.278764 0.295222 0.278764 0.295222 0.996695 0.9868 0.189784 0.179256 0.284115 0.266044 0.179256 0.169323 0.266044 0.253743 0.284115 0.266044 0.88328 0.842271 0.266044 0.253743 0.842271 0.795693 0.0493768 0.0573049 0.0263236 0.0493054 -0.0249067 0.0263236 0.0104262 0.0436637 0.0263236 0.0493054 0.0436637 0.0616968 0.169323 0.174782 0.253743 0.263693 0.174782 0.181381 0.263693 0.279367 0.253743 0.263693 0.795693 0.842271 0.263693 0.279367 0.842271 0.88328 0.177389 0.164203 0.285021 0.268312 0.164203 0.149171 0.268312 0.241993 0.285021 0.268312 0.9868 0.996695 0.149171 0.134005 0.241993 0.238611 0.134005 0.117064 0.238611 0.220054 0.238611 0.220054 0.980785 0.92388 -0.15287 -0.248009 -0.137318 -0.243697 -0.137318 -0.243697 -0.120031 -0.224262 -0.243697 -0.980785 -0.224262 -0.92388 0.0236471 -0.0119727 -0.0277294 -0.0453196 -0.050515 -0.0277294 -0.0586096 -0.0508285 -0.0277294 -0.0453196 -0.0508285 -0.0634694 -0.172488 -0.263783 -0.178232 -0.281028 -0.263783 -0.795693 -0.281028 -0.842271 -0.178232 -0.281028 -0.185433 -0.297939 -0.281028 -0.842271 -0.297939 -0.88328 -0.182018 -0.294794 -0.168366 -0.275781 -0.294794 -0.9868 -0.275781 -0.996695 -0.168366 -0.275781 -0.15287 -0.248009 0.0236471 0.0840065 -0.0119727 -0.0225023 0.707107 1.22465e-16 -0.0126159 -0.135231 -0.0126159 -0.135231 -0.101814 -0.145482 -0.0119727 -0.0225023 -0.0578556 -0.0771828 -0.0225023 -0.055409 -0.0771828 -0.102214 -0.0578556 -0.0771828 -0.0982678 -0.114062 -0.0771828 -0.102214 -0.114062 -0.130621 -0.055409 -0.101814 -0.102214 -0.127372 -0.101814 -0.145482 -0.127372 -0.146788 -0.102214 -0.127372 -0.130621 -0.143523 -0.127372 -0.146788 -0.143523 -0.152723 1.22465e-16 -0.707107 -0.135231 -0.232758 -0.135231 -0.232758 -0.145482 -0.171802 -0.707107 -2.02129e-15 -0.197672 -0.0742573 -0.197672 -0.0742573 -0.140034 -0.0874648 -0.172488 -0.182381 -0.263783 -0.28395 -0.182381 -0.194883 -0.28395 -0.320481 -0.263783 -0.28395 -0.795693 -0.842271 -0.28395 -0.320481 -0.842271 -0.88328 -0.195214 -0.182149 -0.318835 -0.294002 -0.182149 -0.165526 -0.294002 -0.264005 -0.318835 -0.294002 -0.9868 -0.996695 -2.02129e-15 0.707107 -0.0742573 0.0546912 -0.0742573 0.0546912 -0.0874648 -0.0326532 0.707107 3.67394e-16 0.109578 0.0354623 0.109578 0.0354623 0.0252327 0.0198718 -0.0874648 -0.0326532 -0.0987111 -0.0648696 -0.0326532 0.00734595 -0.0648696 -0.0349448 -0.0987111 -0.0648696 -0.113081 -0.089343 -0.0648696 -0.0349448 -0.089343 -0.0653414 3.67394e-16 -0.707107 0.0354623 -0.0551543 0.0354623 -0.0551543 0.0198718 -0.000228828 -0.707107 -4.89859e-16 -0.100552 -0.000702572 -0.100552 -0.000702572 -0.0246212 -0.000798785 0.0198718 -0.000228828 -0.00292519 -0.0012729 -0.000228828 -0.0201704 -0.0012729 -0.00420899 -0.00292519 -0.0012729 -0.0266744 -0.0147074 -0.0012729 -0.00420899 -0.0147074 -0.00736842 -0.0201704 -0.0246212 -0.00420899 -0.00607303 -0.0246212 -0.000798785 -0.00607303 -0.000866352 -0.00420899 -0.00607303 -0.00736842 -0.00372216 -0.00607303 -0.000866352 -0.00372216 -0.000951615 -0.165526 -0.147473 -0.264005 -0.257049 -0.147473 -0.127316 -0.257049 -0.234995 -0.257049 -0.234995 -0.980785 -0.92388 -4.89859e-16 0.707107 -0.000702572 0.0990746 -0.000702572 0.0990746 -0.000798785 0.0229714 0.707107 6.12323e-16 0.0536786 -0.0370519 0.0536786 -0.0370519 -0.00151526 -0.021692 -0.000798785 0.0229714 -0.000866352 0.00427982 0.0229714 0.0184785 0.00427982 0.00235309 -0.000866352 0.00427982 -0.000951615 0.00174131 0.00427982 0.00235309 0.00174131 0.00533497 0.0184785 -0.00151526 0.00235309 -0.000650052 -0.00151526 -0.021692 -0.000650052 0.000931553 0.00235309 -0.000650052 0.00533497 0.0125959 -0.000650052 0.000931553 0.0125959 0.0244909 6.12323e-16 -0.707107 -0.0370519 -0.111249 -0.0370519 -0.111249 -0.021692 -0.0271325 -0.707107 -7.34788e-16 -0.0563672 0.072574 -0.0563672 0.072574 0.0306966 0.0855347 -0.00929722 0.0306966 0.032839 0.0627485 0.0306966 0.0855347 0.0627485 0.0966107 0.032839 0.0627485 0.0630344 0.0870235 0.0627485 0.0966107 0.0870235 0.110797 0.12421 0.1442 0.227506 0.247673 0.1442 0.162214 0.247673 0.252228 0.227506 0.247673 0.92388 0.980785 0.0586096 0.0505151 0.0508285 0.0277294 0.0508285 0.0277294 0.0634694 0.0453197 0.0277294 -0.0236471 0.0453197 0.0119728 0.15287 0.168366 0.248009 0.275781 0.168366 0.182018 0.275781 0.294794 0.275781 0.294794 0.996695 0.9868 0.185433 0.178232 0.297939 0.281028 0.178232 0.172488 0.281028 0.263783 0.297939 0.281028 0.88328 0.842271 0.281028 0.263783 0.842271 0.795693 -0.0236471 -0.0840065 0.0119728 0.0225023 -0.707107 8.57253e-16 0.0126159 0.135231 0.0126159 0.135231 0.101814 0.145482 0.0119728 0.0225023 0.0578556 0.0771828 0.0225023 0.055409 0.0771828 0.102214 0.0578556 0.0771828 0.0982679 0.114062 0.0771828 0.102214 0.114062 0.130621 0.055409 0.101814 0.102214 0.127372 0.101814 0.145482 0.127372 0.146788 0.102214 0.127372 0.130621 0.143523 0.127372 0.146788 0.143523 0.152723 8.57253e-16 0.707107 0.135231 0.232758 0.135231 0.232758 0.145482 0.171802 0.707107 -7.34788e-16 0.197672 0.0742572 0.197672 0.0742572 0.140034 0.0874647 0.172488 0.182381 0.263783 0.28395 0.182381 0.194883 0.28395 0.320481 0.263783 0.28395 0.795693 0.842271 0.28395 0.320481 0.842271 0.88328 0.195214 0.182149 0.318835 0.294001 0.182149 0.165526 0.294001 0.264005 0.318835 0.294001 0.9868 0.996695 -7.34788e-16 -0.707107 0.0742572 -0.0546913 0.0742572 -0.0546913 0.0874647 0.0326531 -0.707107 6.12323e-16 -0.109579 -0.0354625 -0.109579 -0.0354625 -0.0252328 -0.019872 0.0874647 0.0326531 0.098711 0.0648694 0.0326531 -0.0073461 0.0648694 0.0349447 0.098711 0.0648694 0.113081 0.0893429 0.0648694 0.0349447 0.0893429 0.0653413 6.12323e-16 0.707107 -0.0354625 0.0551542 -0.0354625 0.0551542 -0.019872 0.00022866 0.707107 -4.89859e-16 0.100552 0.000702433 0.100552 0.000702433 0.0246211 0.000798617 -0.019872 0.00022866 0.00292502 0.00127272 0.00022866 0.0201702 0.00127272 0.00420881 0.00292502 0.00127272 0.0266742 0.0147072 0.00127272 0.00420881 0.0147072 0.00736823 0.0201702 0.0246211 0.00420881 0.00607285 0.0246211 0.000798617 0.00607285 0.000866173 0.00420881 0.00607285 0.00736823 0.00372197 0.00607285 0.000866173 0.00372197 0.000951425 0.165526 0.147473 0.264005 0.257049 0.147473 0.127316 0.257049 0